 Gaussian 16, Revision A.03,
 Gaussian 16:  ES64L-G16RevA.03 25-Dec-2016

 ----------------------------------------------------------------------
 # nmr genecp pbe1pbe EmpiricalDispersion=GD3BJ scrf=(SMD,solvent=water
 ) geom=allcheck
 ----------------------------------------------------------------------

 Structure from the checkpoint file:  "/scratch/js1212.15144/2-Full-Trans-B-GPOF.chk"
 -------------------
 Title Card Required
 -------------------
 Charge =  0 Multiplicity = 1

                         Standard orientation:
 ---------------------------------------------------------------------
 Center     Atomic      Atomic             Coordinates (Angstroms)
 Number     Number       Type             X           Y           Z
 ---------------------------------------------------------------------
      1          7           0       -0.804556    1.444952   -0.188290
      2          6           0       -2.034682    1.864359    0.148907
      3          6           0        0.122326    2.303839   -0.645140
      4          6           0       -2.395872    3.202295    0.026468
      5          6           0       -1.444317    4.111328   -0.427076
      6          6           0       -0.171082    3.661499   -0.763716
      7          6           0       -2.909160    0.800310    0.729464
      8          1           0       -3.402643    3.522292    0.296864
      9          1           0       -1.695052    5.169559   -0.521849
     10          1           0        0.592231    4.351438   -1.124689
     11          6           0        1.437439    1.706908   -1.038430
     12          7           0       -2.682035   -0.509431    0.083591
     13          1           0       -3.971366    1.095956    0.709245
     14          1           0       -2.570485    0.661409    1.771889
     15          1           0        1.387513    1.456636   -2.111684
     16         15           0        1.720974    0.066986   -0.179049
     17          1           0        2.261885    2.422780   -0.905041
     18         44           0       -0.411995   -0.613190    0.080950
     19          6           0       -3.202031   -0.527225   -1.302705
     20          6           0        2.898857   -0.813174   -1.387671
     21          6           0       -3.304075   -1.530958    0.956513
     22          6           0        2.639558    0.543271    1.416419
     23          6           0        2.069095   -1.361447   -2.551742
     24          6           0        3.568115   -1.993370   -0.679017
     25          6           0        3.967408    0.120124   -1.965822
     26          6           0        1.766163    1.613614    2.084065
     27          6           0        4.054252    1.085175    1.229533
     28          6           0        2.659743   -0.682291    2.334069
     29          1           0       -0.434168   -0.782031   -1.520416
     30          1           0       -2.667782    0.265669   -1.845309
     31          6           0       -4.705879   -0.358561   -1.465139
     32          1           0       -2.866857   -1.469827   -1.753820
     33          1           0       -2.727958   -1.473265    1.892243
     34          6           0       -3.290033   -2.935903    0.395389
     35          1           0       -4.345707   -1.230502    1.184154
     36          6           0        0.020495   -2.379400    0.205286
     37          8           0       -0.764099   -0.176880    2.173094
     38          1           0       -0.410803   -0.883737    2.723577
     39          1           0       -2.276148   -3.243044    0.107117
     40          1           0       -3.948527   -3.053744   -0.478369
     41          1           0       -3.645587   -3.631904    1.169537
     42          1           0       -4.954471   -0.402483   -2.536210
     43          1           0       -5.069073    0.609600   -1.088795
     44          1           0       -5.276484   -1.154037   -0.963041
     45          1           0        2.755512   -1.825859   -3.279749
     46          1           0        1.505066   -0.573401   -3.072893
     47          1           0        1.342791   -2.111738   -2.217692
     48          1           0        4.120181   -2.590362   -1.424020
     49          1           0        2.830979   -2.656363   -0.203392
     50          1           0        4.291848   -1.668646    0.081376
     51          1           0        4.617760   -0.463309   -2.638907
     52          1           0        4.608460    0.572065   -1.200326
     53          1           0        3.527946    0.928804   -2.568546
     54          1           0        4.758867    0.323820    0.865966
     55          1           0        4.429096    1.435497    2.206223
     56          1           0        4.087395    1.946725    0.544442
     57          1           0        3.280525   -1.500002    1.945073
     58          1           0        1.638600   -1.057545    2.484080
     59          1           0        3.066543   -0.388929    3.316310
     60          1           0        2.201819    1.849611    3.070209
     61          1           0        0.739774    1.229465    2.235457
     62          1           0        1.743967    2.553093    1.509404
     63          8           0        0.353569   -3.496764    0.251968
 ---------------------------------------------------------------------

 SCF Done:  E(RPBE1PBE) =  -1479.81486880     A.U. after   17 cycles

      1  N    Isotropic =   -37.7610   Anisotropy =   376.6467

      2  C    Isotropic =    20.8443   Anisotropy =   172.8914

      3  C    Isotropic =    19.3930   Anisotropy =   177.0965

      4  C    Isotropic =    63.9712   Anisotropy =   168.0212

      5  C    Isotropic =    43.7154   Anisotropy =   205.7838

      6  C    Isotropic =    62.9713   Anisotropy =   165.7486

      7  C    Isotropic =   125.5761   Anisotropy =    57.4048

      8  H    Isotropic =    23.7407   Anisotropy =     7.3140

      9  H    Isotropic =    23.2701   Anisotropy =     4.3253

     10  H    Isotropic =    23.5456   Anisotropy =     8.3408

     11  C    Isotropic =   146.4128   Anisotropy =    38.0297

     12  N    Isotropic =   186.8035   Anisotropy =    72.9839

     13  H    Isotropic =    27.5031   Anisotropy =     8.0657

     14  H    Isotropic =    25.3448   Anisotropy =     6.7298

     15  H    Isotropic =    27.6299   Anisotropy =     5.4903

     16  P    Isotropic =   198.0354   Anisotropy =   244.9271

     17  H    Isotropic =    27.4380   Anisotropy =     8.0825

     18  Ru   Isotropic =  -381.6587   Anisotropy =   132.2164

     19  C    Isotropic =   133.4382   Anisotropy =    52.5339

     20  C    Isotropic =   147.3363   Anisotropy =    23.6846

     21  C    Isotropic =   137.9726   Anisotropy =    52.7435

     22  C    Isotropic =   143.0757   Anisotropy =    28.0311

     23  C    Isotropic =   151.5242   Anisotropy =    30.0215

     24  C    Isotropic =   159.2770   Anisotropy =    31.8387

     25  C    Isotropic =   161.0837   Anisotropy =    38.1325

     26  C    Isotropic =   157.6268   Anisotropy =    34.2754

     27  C    Isotropic =   159.8799   Anisotropy =    32.3622

     28  C    Isotropic =   157.7995   Anisotropy =    38.3891

     29  H    Isotropic =    41.4326   Anisotropy =    14.1170

     30  H    Isotropic =    28.5954   Anisotropy =     7.2230

     31  C    Isotropic =   182.2377   Anisotropy =    14.5689

     32  H    Isotropic =    28.0572   Anisotropy =     4.3461

     33  H    Isotropic =    27.4492   Anisotropy =     4.9214

     34  C    Isotropic =   173.7514   Anisotropy =    21.1742

     35  H    Isotropic =    28.7147   Anisotropy =     8.0678

     36  C    Isotropic =   -45.5406   Anisotropy =   455.3572

     37  O    Isotropic =   354.5696   Anisotropy =    95.0831

     38  H    Isotropic =    33.2030   Anisotropy =    18.1809

     39  H    Isotropic =    29.4103   Anisotropy =     9.0793

     40  H    Isotropic =    29.7987   Anisotropy =     8.5671

     41  H    Isotropic =    30.0576   Anisotropy =    12.1471

     42  H    Isotropic =    30.7940   Anisotropy =    12.3580

     43  H    Isotropic =    30.0828   Anisotropy =     9.1795

     44  H    Isotropic =    30.1918   Anisotropy =     8.9817

     45  H    Isotropic =    30.5096   Anisotropy =    10.1882

     46  H    Isotropic =    29.9608   Anisotropy =     5.9045

     47  H    Isotropic =    29.7995   Anisotropy =     6.7569

     48  H    Isotropic =    30.2572   Anisotropy =    10.7671

     49  H    Isotropic =    29.6958   Anisotropy =     6.4062

     50  H    Isotropic =    29.5437   Anisotropy =     7.0071

     51  H    Isotropic =    30.3670   Anisotropy =    11.2264

     52  H    Isotropic =    29.3047   Anisotropy =     7.1413

     53  H    Isotropic =    29.9502   Anisotropy =     7.6516

     54  H    Isotropic =    29.5380   Anisotropy =     7.8940

     55  H    Isotropic =    30.3675   Anisotropy =    10.7729

     56  H    Isotropic =    29.5915   Anisotropy =     7.4126

     57  H    Isotropic =    29.5315   Anisotropy =     6.7968

     58  H    Isotropic =    29.5948   Anisotropy =     7.4187

     59  H    Isotropic =    30.5406   Anisotropy =    10.6150

     60  H    Isotropic =    31.2093   Anisotropy =     9.9663

     61  H    Isotropic =    27.8723   Anisotropy =    13.5033

     62  H    Isotropic =    30.9830   Anisotropy =     6.3812

     63  O    Isotropic =   -36.3312   Anisotropy =   579.5008

 The electronic state is 1-A.
 Alpha  occ. eigenvalues --  -77.25106 -19.24060 -19.12584 -14.42316 -14.42304
 Alpha  occ. eigenvalues --  -10.30558 -10.28680 -10.28154 -10.25027 -10.24811
 Alpha  occ. eigenvalues --  -10.24805 -10.24382 -10.24309 -10.24193 -10.23882
 Alpha  occ. eigenvalues --  -10.23856 -10.23413 -10.20759 -10.20700 -10.20675
 Alpha  occ. eigenvalues --  -10.20670 -10.20615 -10.20496 -10.20376 -10.19708
 Alpha  occ. eigenvalues --   -6.62485  -4.76170  -4.76070  -4.75845  -3.02768
 Alpha  occ. eigenvalues --   -1.87151  -1.85648  -1.84662  -1.11783  -1.00461
 Alpha  occ. eigenvalues --   -0.96405  -0.91668  -0.84884  -0.83611  -0.83074
 Alpha  occ. eigenvalues --   -0.82365  -0.77732  -0.76808  -0.73972  -0.70399
 Alpha  occ. eigenvalues --   -0.70257  -0.69847  -0.69375  -0.69013  -0.66073
 Alpha  occ. eigenvalues --   -0.65645  -0.62996  -0.61759  -0.57487  -0.56409
 Alpha  occ. eigenvalues --   -0.55820  -0.53165  -0.52818  -0.51918  -0.50977
 Alpha  occ. eigenvalues --   -0.49770  -0.48261  -0.47477  -0.46484  -0.45847
 Alpha  occ. eigenvalues --   -0.45668  -0.45500  -0.45404  -0.44636  -0.44257
 Alpha  occ. eigenvalues --   -0.43922  -0.43497  -0.43142  -0.42856  -0.42237
 Alpha  occ. eigenvalues --   -0.41672  -0.41369  -0.40985  -0.40387  -0.39917
 Alpha  occ. eigenvalues --   -0.39394  -0.38844  -0.38651  -0.38070  -0.37882
 Alpha  occ. eigenvalues --   -0.37839  -0.36709  -0.36391  -0.36260  -0.35943
 Alpha  occ. eigenvalues --   -0.35139  -0.34933  -0.34408  -0.34377  -0.33585
 Alpha  occ. eigenvalues --   -0.33080  -0.32652  -0.32539  -0.32196  -0.31691
 Alpha  occ. eigenvalues --   -0.31212  -0.29530  -0.27154  -0.26705  -0.26464
 Alpha  occ. eigenvalues --   -0.25160  -0.23639  -0.22469  -0.19585
 Alpha virt. eigenvalues --   -0.04119  -0.01941   0.00480   0.00929   0.01579
 Alpha virt. eigenvalues --    0.03105   0.03306   0.03948   0.04444   0.05687
 Alpha virt. eigenvalues --    0.06932   0.07493   0.07676   0.07840   0.08234

 Mulliken charges:
               1
     1  N   -0.115696
     2  C    0.090889
     3  C    0.033051
     4  C   -0.169651
     5  C   -0.127674
     6  C   -0.140753
     7  C   -0.108687
     8  H    0.160219
     9  H    0.162813
    10  H    0.162060
    11  C   -0.226445
    12  N   -0.193791
    13  H    0.124974
    14  H    0.184605
    15  H    0.163194
    16  P    0.105846
    17  H    0.149030
    18  Ru   0.538988
    19  C   -0.119707
    20  C   -0.003916
    21  C   -0.124698
    22  C    0.008989
    23  C   -0.348414
    24  C   -0.349274
    25  C   -0.334935
    26  C   -0.378067
    27  C   -0.332482
    28  C   -0.348136
    29  H   -0.215070
    30  H    0.141473
    31  C   -0.322239
    32  H    0.132593
    33  H    0.127677
    34  C   -0.342631
    35  H    0.115190
    36  C   -0.141134
    37  O   -0.722580
    38  H    0.254171
    39  H    0.128776
    40  H    0.112222
    41  H    0.118904
    42  H    0.116962
    43  H    0.110709
    44  H    0.111314
    45  H    0.110917
    46  H    0.124300
    47  H    0.142214
    48  H    0.107298
    49  H    0.124276
    50  H    0.121384
    51  H    0.108336
    52  H    0.123956
    53  H    0.114112
    54  H    0.116850
    55  H    0.106179
    56  H    0.114800
    57  H    0.119578
    58  H    0.122725
    59  H    0.107276
    60  H    0.103800
    61  H    0.137997
    62  H    0.109566
    63  O   -0.304238
 Sum of Mulliken charges =  -0.00000

 Dipole moment (field-independent basis, Debye):
    X=             -0.2906    Y=              8.1960    Z=             -4.3558  Tot=              9.2861
 Quadrupole moment (field-independent basis, Debye-Ang):
   XX=           -148.9024   YY=           -175.7842   ZZ=           -191.0844
   XY=             -0.3595   XZ=             -0.4783   YZ=             -6.5001

 Normal termination of Gaussian 16 at Sun Nov 11 15:47:03 2018.
