 Gaussian 16, Revision A.03,
 Gaussian 16:  ES64L-G16RevA.03 25-Dec-2016

 ----------------------------------------------------------------------
 # genecp pbe1pbe EmpiricalDispersion=GD3BJ scrf=(SMD,solvent=water) td
 =nstates=25 geom=allcheck
 ----------------------------------------------------------------------

 Structure from the checkpoint file:  "/scratch/js1212.730156/2-Full-Trans-B-GPOF.chk"
 -------------------
 Title Card Required
 -------------------
 Charge =  0 Multiplicity = 1

                         Standard orientation:
 ---------------------------------------------------------------------
 Center     Atomic      Atomic             Coordinates (Angstroms)
 Number     Number       Type             X           Y           Z
 ---------------------------------------------------------------------
      1          7           0       -0.804556    1.444952   -0.188290
      2          6           0       -2.034682    1.864359    0.148907
      3          6           0        0.122326    2.303839   -0.645140
      4          6           0       -2.395872    3.202295    0.026468
      5          6           0       -1.444317    4.111328   -0.427076
      6          6           0       -0.171082    3.661499   -0.763716
      7          6           0       -2.909160    0.800310    0.729464
      8          1           0       -3.402643    3.522292    0.296864
      9          1           0       -1.695052    5.169559   -0.521849
     10          1           0        0.592231    4.351438   -1.124689
     11          6           0        1.437439    1.706908   -1.038430
     12          7           0       -2.682035   -0.509431    0.083591
     13          1           0       -3.971366    1.095956    0.709245
     14          1           0       -2.570485    0.661409    1.771889
     15          1           0        1.387513    1.456636   -2.111684
     16         15           0        1.720974    0.066986   -0.179049
     17          1           0        2.261885    2.422780   -0.905041
     18         44           0       -0.411995   -0.613190    0.080950
     19          6           0       -3.202031   -0.527225   -1.302705
     20          6           0        2.898857   -0.813174   -1.387671
     21          6           0       -3.304075   -1.530958    0.956513
     22          6           0        2.639558    0.543271    1.416419
     23          6           0        2.069095   -1.361447   -2.551742
     24          6           0        3.568115   -1.993370   -0.679017
     25          6           0        3.967408    0.120124   -1.965822
     26          6           0        1.766163    1.613614    2.084065
     27          6           0        4.054252    1.085175    1.229533
     28          6           0        2.659743   -0.682291    2.334069
     29          1           0       -0.434168   -0.782031   -1.520416
     30          1           0       -2.667782    0.265669   -1.845309
     31          6           0       -4.705879   -0.358561   -1.465139
     32          1           0       -2.866857   -1.469827   -1.753820
     33          1           0       -2.727958   -1.473265    1.892243
     34          6           0       -3.290033   -2.935903    0.395389
     35          1           0       -4.345707   -1.230502    1.184154
     36          6           0        0.020495   -2.379400    0.205286
     37          8           0       -0.764099   -0.176880    2.173094
     38          1           0       -0.410803   -0.883737    2.723577
     39          1           0       -2.276148   -3.243044    0.107117
     40          1           0       -3.948527   -3.053744   -0.478369
     41          1           0       -3.645587   -3.631904    1.169537
     42          1           0       -4.954471   -0.402483   -2.536210
     43          1           0       -5.069073    0.609600   -1.088795
     44          1           0       -5.276484   -1.154037   -0.963041
     45          1           0        2.755512   -1.825859   -3.279749
     46          1           0        1.505066   -0.573401   -3.072893
     47          1           0        1.342791   -2.111738   -2.217692
     48          1           0        4.120181   -2.590362   -1.424020
     49          1           0        2.830979   -2.656363   -0.203392
     50          1           0        4.291848   -1.668646    0.081376
     51          1           0        4.617760   -0.463309   -2.638907
     52          1           0        4.608460    0.572065   -1.200326
     53          1           0        3.527946    0.928804   -2.568546
     54          1           0        4.758867    0.323820    0.865966
     55          1           0        4.429096    1.435497    2.206223
     56          1           0        4.087395    1.946725    0.544442
     57          1           0        3.280525   -1.500002    1.945073
     58          1           0        1.638600   -1.057545    2.484080
     59          1           0        3.066543   -0.388929    3.316310
     60          1           0        2.201819    1.849611    3.070209
     61          1           0        0.739774    1.229465    2.235457
     62          1           0        1.743967    2.553093    1.509404
     63          8           0        0.353569   -3.496764    0.251968
 ---------------------------------------------------------------------

 SCF Done:  E(RPBE1PBE) =  -1479.51634989     A.U. after   16 cycles

 Excitation energies and oscillator strengths:

 Excited State   1:      Singlet-A      3.0872 eV  401.61 nm  f=0.0062  <S**2>=0.000
     109 ->110         0.67695
     109 ->113         0.15375
 This state for optimization and/or second-order correction.
 Total Energy, E(TD-HF/TD-DFT) =  -1479.40289910
 Copying the excited state density for this state as the 1-particle RhoCI density.

 Excited State   2:      Singlet-A      3.6212 eV  342.38 nm  f=0.0120  <S**2>=0.000
     109 ->110        -0.18424
     109 ->111         0.11745
     109 ->112        -0.37475
     109 ->113         0.42989
     109 ->114         0.24198
     109 ->115        -0.11252
     109 ->118        -0.10810

 Excited State   3:      Singlet-A      3.8405 eV  322.84 nm  f=0.0047  <S**2>=0.000
     108 ->110        -0.15163
     109 ->111         0.67267
     109 ->112         0.10102

 Excited State   4:      Singlet-A      4.0093 eV  309.24 nm  f=0.0666  <S**2>=0.000
     107 ->110        -0.11675
     108 ->110         0.65259
     108 ->113         0.12052
     109 ->111         0.15975

 Excited State   5:      Singlet-A      4.1095 eV  301.70 nm  f=0.0005  <S**2>=0.000
     109 ->112         0.36201
     109 ->113         0.43749
     109 ->114        -0.28816
     109 ->117        -0.19622

 Excited State   6:      Singlet-A      4.3432 eV  285.47 nm  f=0.0344  <S**2>=0.000
     107 ->110         0.66205
     107 ->113         0.10508
     108 ->112        -0.10055

 Excited State   7:      Singlet-A      4.4901 eV  276.13 nm  f=0.0154  <S**2>=0.000
     107 ->110         0.11601
     108 ->110         0.13815
     108 ->112         0.41470
     108 ->113        -0.30693
     108 ->114        -0.31199
     108 ->115         0.14257
     109 ->113        -0.10752
     109 ->118         0.15242

 Excited State   8:      Singlet-A      4.6139 eV  268.72 nm  f=0.0021  <S**2>=0.000
     104 ->110        -0.15780
     108 ->111         0.66378

 Excited State   9:      Singlet-A      4.7212 eV  262.61 nm  f=0.0019  <S**2>=0.000
     106 ->110         0.41727
     107 ->112        -0.18140
     107 ->113         0.14232
     107 ->114         0.14392
     108 ->113        -0.10147
     109 ->112         0.23884
     109 ->114         0.33159

 Excited State  10:      Singlet-A      4.7433 eV  261.39 nm  f=0.0052  <S**2>=0.000
     106 ->110         0.41469
     107 ->112        -0.10063
     109 ->112        -0.27859
     109 ->114        -0.40630
     109 ->118        -0.12142

 Excited State  11:      Singlet-A      4.7794 eV  259.41 nm  f=0.0072  <S**2>=0.000
     106 ->110         0.35387
     107 ->112         0.32334
     107 ->113        -0.21428
     107 ->114        -0.24625
     108 ->113         0.22894
     108 ->117        -0.11229

 Excited State  12:      Singlet-A      4.8985 eV  253.11 nm  f=0.0015  <S**2>=0.000
     108 ->112        -0.11633
     108 ->113         0.10299
     109 ->115        -0.27598
     109 ->116         0.17797
     109 ->118         0.54493

 Excited State  13:      Singlet-A      4.9622 eV  249.86 nm  f=0.0081  <S**2>=0.000
     107 ->112        -0.17796
     107 ->113         0.14437
     107 ->114         0.12336
     107 ->118        -0.14812
     108 ->112         0.15901
     108 ->113         0.44019
     108 ->114        -0.25794
     108 ->119         0.17221
     108 ->120        -0.14156
     109 ->117        -0.12182

 Excited State  14:      Singlet-A      5.0075 eV  247.60 nm  f=0.0044  <S**2>=0.000
     107 ->111        -0.21235
     107 ->112        -0.12539
     107 ->114         0.11324
     109 ->112         0.17445
     109 ->113         0.11527
     109 ->115        -0.19373
     109 ->117         0.51034
     109 ->118        -0.13651
     109 ->119         0.10870

 Excited State  15:      Singlet-A      5.0254 eV  246.71 nm  f=0.0039  <S**2>=0.000
     104 ->110        -0.16444
     107 ->111         0.63420
     109 ->117         0.17656

 Excited State  16:      Singlet-A      5.0543 eV  245.30 nm  f=0.0033  <S**2>=0.000
     105 ->110         0.66975

 Excited State  17:      Singlet-A      5.2314 eV  237.00 nm  f=0.0522  <S**2>=0.000
     103 ->110        -0.12714
     104 ->110         0.58909
     106 ->111        -0.19970
     107 ->111         0.18074
     108 ->111         0.15503

 Excited State  18:      Singlet-A      5.2671 eV  235.39 nm  f=0.0017  <S**2>=0.000
     103 ->110        -0.18751
     107 ->110        -0.10447
     107 ->111        -0.10056
     107 ->112         0.18031
     107 ->113         0.44640
     107 ->114        -0.13473
     107 ->117        -0.26398
     108 ->118        -0.17895
     109 ->115        -0.15078

 Excited State  19:      Singlet-A      5.3248 eV  232.84 nm  f=0.0206  <S**2>=0.000
     103 ->110         0.60340
     106 ->111        -0.21137
     107 ->113         0.14179
     109 ->115        -0.13655

 Excited State  20:      Singlet-A      5.3535 eV  231.60 nm  f=0.0104  <S**2>=0.000
     106 ->111        -0.17607
     108 ->118        -0.15494
     109 ->112        -0.10825
     109 ->113         0.15928
     109 ->115         0.43160
     109 ->116        -0.15324
     109 ->117         0.27457
     109 ->118         0.26055
     109 ->119        -0.12619

 Excited State  21:      Singlet-A      5.4315 eV  228.27 nm  f=0.0304  <S**2>=0.000
     103 ->110         0.21132
     104 ->110         0.21900
     106 ->111         0.59117
     108 ->118        -0.11882

 Excited State  22:      Singlet-A      5.4915 eV  225.77 nm  f=0.0209  <S**2>=0.000
     106 ->111         0.11609
     107 ->112         0.10043
     107 ->113         0.18337
     108 ->115        -0.22675
     108 ->116         0.13126
     108 ->117         0.10454
     108 ->118         0.46025
     108 ->119         0.10418
     109 ->114        -0.12399
     109 ->117         0.11180
     109 ->119        -0.13737
     109 ->120         0.12246

 Excited State  23:      Singlet-A      5.5372 eV  223.91 nm  f=0.0031  <S**2>=0.000
     109 ->115         0.21948
     109 ->116         0.63852
     109 ->117         0.10873

 Excited State  24:      Singlet-A      5.5474 eV  223.50 nm  f=0.0012  <S**2>=0.000
     107 ->118        -0.10822
     108 ->112         0.44568
     108 ->113         0.10401
     108 ->114         0.44966
     108 ->119        -0.11007
     109 ->116         0.12069

 Excited State  25:      Singlet-A      5.6340 eV  220.06 nm  f=0.0014  <S**2>=0.000
     105 ->113         0.12041
     106 ->112         0.22780
     106 ->114        -0.14195
     107 ->113         0.14167
     108 ->118         0.10997
     109 ->114         0.16463
     109 ->115         0.19792
     109 ->119         0.45517
     109 ->120        -0.21707

 The electronic state is 1-A.
 Alpha  occ. eigenvalues --  -77.25114 -19.25387 -19.13950 -14.43328 -14.43174
 Alpha  occ. eigenvalues --  -10.31303 -10.29381 -10.28859 -10.25811 -10.25548
 Alpha  occ. eigenvalues --  -10.25298 -10.25169 -10.24966 -10.24785 -10.24666
 Alpha  occ. eigenvalues --  -10.24643 -10.24227 -10.21746 -10.21709 -10.21659
 Alpha  occ. eigenvalues --  -10.21654 -10.21618 -10.21478 -10.21346 -10.20616
 Alpha  occ. eigenvalues --   -6.63018  -4.76671  -4.76571  -4.76349  -3.02551
 Alpha  occ. eigenvalues --   -1.87006  -1.85454  -1.84393  -1.12055  -1.00642
 Alpha  occ. eigenvalues --   -0.96499  -0.91373  -0.84942  -0.83737  -0.83160
 Alpha  occ. eigenvalues --   -0.82359  -0.77714  -0.76825  -0.74036  -0.70359
 Alpha  occ. eigenvalues --   -0.70268  -0.69816  -0.69336  -0.68951  -0.66051
 Alpha  occ. eigenvalues --   -0.65706  -0.63019  -0.61796  -0.57401  -0.56366
 Alpha  occ. eigenvalues --   -0.55751  -0.53090  -0.52737  -0.51799  -0.50835
 Alpha  occ. eigenvalues --   -0.49633  -0.48150  -0.47391  -0.46368  -0.45704
 Alpha  occ. eigenvalues --   -0.45515  -0.45380  -0.45232  -0.44447  -0.44105
 Alpha  occ. eigenvalues --   -0.43732  -0.43287  -0.42983  -0.42655  -0.42063
 Alpha  occ. eigenvalues --   -0.41512  -0.41242  -0.40828  -0.40140  -0.39733
 Alpha  occ. eigenvalues --   -0.39213  -0.38663  -0.38500  -0.37892  -0.37692
 Alpha  occ. eigenvalues --   -0.37621  -0.36549  -0.36241  -0.36055  -0.35783
 Alpha  occ. eigenvalues --   -0.35022  -0.34754  -0.34252  -0.34212  -0.33396
 Alpha  occ. eigenvalues --   -0.32909  -0.32481  -0.32405  -0.32036  -0.31565
 Alpha  occ. eigenvalues --   -0.31020  -0.29421  -0.26997  -0.26567  -0.26045
 Alpha  occ. eigenvalues --   -0.24762  -0.23456  -0.22235  -0.19201
 Alpha virt. eigenvalues --   -0.03794  -0.01608   0.00694   0.01166   0.01859
 Alpha virt. eigenvalues --    0.03676   0.03822   0.04376   0.04829   0.06245
 Alpha virt. eigenvalues --    0.07831   0.09116   0.09454   0.09494   0.09998

 Mulliken charges:
               1
     1  N   -0.320505
     2  C    0.039955
     3  C    0.073606
     4  C   -0.051478
     5  C    0.080183
     6  C   -0.050027
     7  C    0.134190
     8  H    0.033019
     9  H    0.046921
    10  H    0.032925
    11  C   -0.093793
    12  N   -0.389607
    13  H    0.067606
    14  H    0.124752
    15  H    0.131796
    16  P    0.222447
    17  H    0.095654
    18  Ru  -0.223847
    19  C   -0.031368
    20  C   -0.460768
    21  C    0.007311
    22  C   -0.443228
    23  C   -0.003873
    24  C   -0.018254
    25  C   -0.002179
    26  C   -0.045958
    27  C    0.001138
    28  C   -0.019961
    29  H   -0.047939
    30  H    0.118753
    31  C   -0.082326
    32  H    0.102910
    33  H    0.068114
    34  C   -0.105252
    35  H    0.050046
    36  C    0.027241
    37  O   -0.502015
    38  H    0.165967
    39  H    0.090627
    40  H    0.063901
    41  H    0.062681
    42  H    0.062031
    43  H    0.063793
    44  H    0.062550
    45  H    0.045217
    46  H    0.070606
    47  H    0.101555
    48  H    0.049540
    49  H    0.069125
    50  H    0.065250
    51  H    0.047383
    52  H    0.043612
    53  H    0.054803
    54  H    0.062950
    55  H    0.044783
    56  H    0.057385
    57  H    0.049099
    58  H    0.084978
    59  H    0.045213
    60  H    0.040248
    61  H    0.075546
    62  H    0.053561
    63  O   -0.198597
 Sum of Mulliken charges =  -0.00000

 Dipole moment (field-independent basis, Debye):
    X=             -0.1574    Y=              7.9514    Z=             -4.0965  Tot=              8.9460
 Quadrupole moment (field-independent basis, Debye-Ang):
   XX=           -147.4918   YY=           -173.8016   ZZ=           -189.3721
   XY=             -0.5256   XZ=             -0.7247   YZ=             -6.3624

 Normal termination of Gaussian 16 at Tue Apr 14 19:11:14 2020.
