 Gaussian 16, Revision A.03,
 Gaussian 16:  ES64L-G16RevA.03 25-Dec-2016

 ---------------------------------------------------
 # opt freq genecp pbe1pbe EmpiricalDispersion=GD3BJ
 ---------------------------------------------------

 -------------------
 Title Card Required
 -------------------
 Symbolic Z-matrix:
 Charge =  0 Multiplicity = 2

 SCF Done:  E(UPBE1PBE) =  -1239.76355411     A.U. after   24 cycles
 SCF Done:  E(UPBE1PBE) =  -1239.78017781     A.U. after   17 cycles
 SCF Done:  E(UPBE1PBE) =  -1239.76667751     A.U. after   18 cycles
 SCF Done:  E(UPBE1PBE) =  -1239.76899714     A.U. after   20 cycles
 SCF Done:  E(UPBE1PBE) =  -1239.78082756     A.U. after   14 cycles
 SCF Done:  E(UPBE1PBE) =  -1239.78333918     A.U. after   17 cycles
 SCF Done:  E(UPBE1PBE) =  -1239.77998224     A.U. after   17 cycles
 SCF Done:  E(UPBE1PBE) =  -1239.78381723     A.U. after   17 cycles
 SCF Done:  E(UPBE1PBE) =  -1239.78440589     A.U. after   17 cycles
 SCF Done:  E(UPBE1PBE) =  -1239.78467137     A.U. after   15 cycles
 SCF Done:  E(UPBE1PBE) =  -1239.78623937     A.U. after   16 cycles
 SCF Done:  E(UPBE1PBE) =  -1239.78628054     A.U. after   15 cycles
 SCF Done:  E(UPBE1PBE) =  -1239.78629970     A.U. after   15 cycles
 SCF Done:  E(UPBE1PBE) =  -1239.78630603     A.U. after   15 cycles
 SCF Done:  E(UPBE1PBE) =  -1239.78631874     A.U. after   14 cycles
 SCF Done:  E(UPBE1PBE) =  -1239.78632283     A.U. after   14 cycles
 SCF Done:  E(UPBE1PBE) =  -1239.78632378     A.U. after   12 cycles
 SCF Done:  E(UPBE1PBE) =  -1239.78632430     A.U. after   12 cycles
 SCF Done:  E(UPBE1PBE) =  -1239.78632447     A.U. after   11 cycles
 Optimization completed.
    -- Stationary point found.
 Normal termination of Gaussian 16 at Mon Jun 29 00:46:18 2020.

 --------------------------------------------------------------------
 #N Geom=AllCheck Guess=TCheck SCRF=Check GenChk UPBE1PBE/GenECP Freq
 --------------------------------------------------------------------

 Structure from the checkpoint file:  "/scratch/js1212.752228/HMe-Trans-Mono-D-0-GPOF.chk"
 -------------------
 Title Card Required
 -------------------
 Charge =  0 Multiplicity = 2

                         Standard orientation:
 ---------------------------------------------------------------------
 Center     Atomic      Atomic             Coordinates (Angstroms)
 Number     Number       Type             X           Y           Z
 ---------------------------------------------------------------------
      1          8           0        0.250587   -0.575192   -1.976030
      2          8           0        0.350902   -1.903106   -2.536300
      3          6           0        2.694870   -2.142102   -0.457447
      4          1           0        2.363374    0.081083   -1.549107
      5         44           0       -0.133921   -0.880529    0.054564
      6          7           0        2.122135   -0.972816    0.217788
      7          6           0        2.554388    0.254111   -0.477974
      8          6           0       -2.717385    0.424678   -1.890836
      9          6           0       -3.715468   -0.494123    0.661023
     10         15           0       -2.173264    0.014364   -0.189209
     11          1           0        3.631364    0.443628   -0.313889
     12          6           0        2.564443   -0.928433    1.613727
     13          6           0       -0.548769   -1.393790    1.768802
     14          6           0        1.726973    1.454011   -0.104770
     15          7           0        0.438748    1.188260    0.149411
     16          6           0       -1.868560    1.703708    0.591270
     17          6           0       -0.463515    2.165826    0.336248
     18          6           0        2.191651    2.765096   -0.127334
     19          1           0        3.245103    2.972930   -0.320161
     20          1           0       -1.987035    1.527105    1.675521
     21          1           0       -2.607841    2.464046    0.294804
     22          6           0       -0.065543    3.501482    0.293897
     23          6           0        1.277660    3.797699    0.074327
     24          1           0       -0.798311    4.296341    0.439237
     25          1           0        1.611515    4.836776    0.051860
     26          8           0       -0.864653   -1.723146    2.846428
     27          1           0       -0.582290   -2.152239   -2.620989
     28          1           0        2.139083   -0.044720    2.107656
     29          1           0        3.669527   -0.885431    1.675616
     30          1           0        2.205953   -1.822328    2.139013
     31          1           0        2.409417   -3.043293    0.100797
     32          1           0        3.800355   -2.078286   -0.495361
     33          1           0        2.276254   -2.211472   -1.468897
     34          1           0       -3.460678    1.235730   -1.906604
     35          1           0       -3.153362   -0.477131   -2.346032
     36          1           0       -1.815901    0.690433   -2.462374
     37          1           0       -3.486571   -0.698664    1.716729
     38          1           0       -4.073734   -1.426861    0.202281
     39          1           0       -4.500096    0.274661    0.588417
 ---------------------------------------------------------------------

 SCF Done:  E(UPBE1PBE) =  -1239.78632447     A.U. after    1 cycles

 The electronic state is 2-A.
 Alpha  occ. eigenvalues --  -77.25637 -19.22703 -19.21193 -19.17195 -14.43982
 Alpha  occ. eigenvalues --  -14.43694 -10.30125 -10.29744 -10.28612 -10.27180
 Alpha  occ. eigenvalues --  -10.27133 -10.26178 -10.26145 -10.25892 -10.25512
 Alpha  occ. eigenvalues --  -10.24848 -10.23944 -10.23148  -6.63573  -4.77228
 Alpha  occ. eigenvalues --   -4.77180  -4.76848  -3.01745  -1.85788  -1.85012
 Alpha  occ. eigenvalues --   -1.84411  -1.09002  -1.05980  -1.01173  -0.97437
 Alpha  occ. eigenvalues --   -0.84904  -0.84517  -0.80520  -0.79014  -0.75186
 Alpha  occ. eigenvalues --   -0.73400  -0.72665  -0.71595  -0.66397  -0.64961
 Alpha  occ. eigenvalues --   -0.61787  -0.57044  -0.54660  -0.53388  -0.52542
 Alpha  occ. eigenvalues --   -0.50834  -0.49760  -0.49294  -0.47443  -0.47123
 Alpha  occ. eigenvalues --   -0.46660  -0.45145  -0.44355  -0.43746  -0.43632
 Alpha  occ. eigenvalues --   -0.42964  -0.42592  -0.41757  -0.41403  -0.40710
 Alpha  occ. eigenvalues --   -0.40520  -0.40247  -0.39818  -0.38727  -0.38184
 Alpha  occ. eigenvalues --   -0.38002  -0.36829  -0.35729  -0.35436  -0.34879
 Alpha  occ. eigenvalues --   -0.34471  -0.33065  -0.32224  -0.28284  -0.27554
 Alpha  occ. eigenvalues --   -0.25358  -0.21759  -0.20742  -0.20553  -0.18825
 Alpha  occ. eigenvalues --   -0.13978
 Alpha virt. eigenvalues --   -0.04359  -0.02713   0.00707   0.01167   0.01847
 Alpha virt. eigenvalues --    0.02864   0.04663   0.05928   0.06124   0.07324
 Alpha virt. eigenvalues --    0.08014   0.08240   0.09289   0.09508   0.10010

  Beta  occ. eigenvalues --  -77.25646 -19.22670 -19.21079 -19.17154 -14.43981
  Beta  occ. eigenvalues --  -14.43454 -10.30145 -10.29757 -10.28649 -10.27195
  Beta  occ. eigenvalues --  -10.27125 -10.26165 -10.26129 -10.25892 -10.25511
  Beta  occ. eigenvalues --  -10.24848 -10.23944 -10.23154  -6.63586  -4.77233
  Beta  occ. eigenvalues --   -4.77189  -4.76873  -2.99211  -1.83865  -1.82681
  Beta  occ. eigenvalues --   -1.80028  -1.08937  -1.05779  -1.00951  -0.97402
  Beta  occ. eigenvalues --   -0.84848  -0.84486  -0.80359  -0.78996  -0.75159
  Beta  occ. eigenvalues --   -0.73395  -0.72643  -0.71598  -0.66348  -0.64897
  Beta  occ. eigenvalues --   -0.61744  -0.57029  -0.54537  -0.53267  -0.52507
  Beta  occ. eigenvalues --   -0.50799  -0.49730  -0.49266  -0.47379  -0.47098
  Beta  occ. eigenvalues --   -0.46623  -0.44996  -0.44236  -0.43676  -0.43601
  Beta  occ. eigenvalues --   -0.42860  -0.42471  -0.41607  -0.41381  -0.40481
  Beta  occ. eigenvalues --   -0.40413  -0.40234  -0.39790  -0.38651  -0.38162
  Beta  occ. eigenvalues --   -0.37873  -0.36632  -0.35575  -0.35318  -0.34605
  Beta  occ. eigenvalues --   -0.33749  -0.32304  -0.32027  -0.28254  -0.27505
  Beta  occ. eigenvalues --   -0.24825  -0.20761  -0.19723  -0.19322  -0.18051
  Beta virt. eigenvalues --   -0.04359  -0.02743  -0.01569   0.00934   0.02095
  Beta virt. eigenvalues --    0.02578   0.03185   0.04973   0.06236   0.06636
  Beta virt. eigenvalues --    0.07649   0.08117   0.08494   0.09426   0.09634

 Mulliken charges and spin densities:
               1          2
     1  O   -0.386283   0.011334
     2  O   -0.155165   0.025494
     3  C    0.015732  -0.000496
     4  H    0.125613  -0.000416
     5  Ru   0.148405   0.914205
     6  N   -0.393421   0.000254
     7  C    0.114761   0.003071
     8  C   -0.182613  -0.003093
     9  C   -0.186239  -0.001915
    10  P    0.012500  -0.006682
    11  H    0.032146  -0.000505
    12  C    0.020049  -0.000086
    13  C   -0.054030  -0.010765
    14  C    0.068180  -0.007007
    15  N   -0.320034   0.064772
    16  C   -0.110467   0.001017
    17  C    0.092104  -0.008272
    18  C   -0.043171   0.007895
    19  H    0.005583   0.001756
    20  H    0.104022  -0.000457
    21  H    0.052906  -0.000954
    22  C   -0.048500   0.007262
    23  C    0.083097  -0.010323
    24  H    0.004173   0.001373
    25  H    0.020186   0.000412
    26  O   -0.160335   0.009835
    27  H    0.184698   0.000091
    28  H    0.093122   0.000219
    29  H    0.035280   0.000290
    30  H    0.087305  -0.000596
    31  H    0.077226  -0.000386
    32  H    0.030937   0.003018
    33  H    0.128501  -0.000678
    34  H    0.056821   0.000128
    35  H    0.076487  -0.000211
    36  H    0.125762  -0.000077
    37  H    0.097085  -0.000595
    38  H    0.086819  -0.000370
    39  H    0.060759   0.001461
 Sum of Mulliken charges =  -0.00000   1.00000

 Dipole moment (field-independent basis, Debye):
    X=              0.1922    Y=              4.9402    Z=              0.5998  Tot=              4.9802
 Quadrupole moment (field-independent basis, Debye-Ang):
   XX=           -112.7721   YY=           -125.4842   ZZ=           -149.8094
   XY=             -0.8493   XZ=              6.3509   YZ=              3.4898

  Exact polarizability: 245.938   6.235 242.275  -4.399  -3.881 177.461
 Approx polarizability: 356.498   7.001 362.224 -27.818 -17.293 315.550

                      1                      2                      3
                      A                      A                      A
 Frequencies --     38.2993                64.9179                71.4998
 Red. masses --      6.6972                 3.5064                 8.3715
 Frc consts  --      0.0058                 0.0087                 0.0252
 IR Inten    --      0.2220                 0.6786                 2.0929

                      4                      5                      6
                      A                      A                      A
 Frequencies --     72.9956                84.2958               109.1848
 Red. masses --      4.5591                 8.9575                 4.0050
 Frc consts  --      0.0143                 0.0375                 0.0281
 IR Inten    --      1.6102                 0.6873                 0.9404

                      7                      8                      9
                      A                      A                      A
 Frequencies --    118.8931               146.6172               161.8231
 Red. masses --      3.9676                 2.5580                 1.4166
 Frc consts  --      0.0330                 0.0324                 0.0219
 IR Inten    --      2.6859                 8.5942                28.4065

                     10                     11                     12
                      A                      A                      A
 Frequencies --    172.4455               178.8449               188.8805
 Red. masses --      2.8769                 2.9139                 1.6974
 Frc consts  --      0.0504                 0.0549                 0.0357
 IR Inten    --     11.2157                31.9686                 6.2378

                     13                     14                     15
                      A                      A                      A
 Frequencies --    197.4618               206.9152               214.0392
 Red. masses --      2.2880                 1.5592                 2.1037
 Frc consts  --      0.0526                 0.0393                 0.0568
 IR Inten    --      2.6828                 5.0530                 1.1501

                     16                     17                     18
                      A                      A                      A
 Frequencies --    221.3758               223.9681               237.1005
 Red. masses --      3.2218                 3.6556                 4.8925
 Frc consts  --      0.0930                 0.1080                 0.1621
 IR Inten    --      2.6414                 2.8776                 6.3891

                     19                     20                     21
                      A                      A                      A
 Frequencies --    242.4493               248.2868               261.0607
 Red. masses --      3.3096                 3.4206                 3.2556
 Frc consts  --      0.1146                 0.1242                 0.1307
 IR Inten    --     17.3037                11.4851                 6.6577

                     22                     23                     24
                      A                      A                      A
 Frequencies --    285.2222               292.8000               310.2169
 Red. masses --      1.1923                 2.3053                 1.1733
 Frc consts  --      0.0571                 0.1164                 0.0665
 IR Inten    --      3.7646                 1.5597                 1.0568

                     25                     26                     27
                      A                      A                      A
 Frequencies --    347.1981               358.2837               374.3733
 Red. masses --      2.8627                 3.1083                 4.4479
 Frc consts  --      0.2033                 0.2351                 0.3673
 IR Inten    --      1.5365                 5.3819                 6.7363

                     28                     29                     30
                      A                      A                      A
 Frequencies --    405.6063               452.0446               457.4754
 Red. masses --      3.1194                 6.0100                 3.8512
 Frc consts  --      0.3024                 0.7236                 0.4749
 IR Inten    --      7.8600                14.3746                 0.5766

                     31                     32                     33
                      A                      A                      A
 Frequencies --    470.8650               473.7190               542.5919
 Red. masses --      2.9132                 2.8994                 4.2854
 Frc consts  --      0.3806                 0.3834                 0.7433
 IR Inten    --     20.0984                 1.3806                 2.5492

                     34                     35                     36
                      A                      A                      A
 Frequencies --    552.2171               572.1447               610.3040
 Red. masses --      6.8199                11.9865                 5.6038
 Frc consts  --      1.2253                 2.3118                 1.2298
 IR Inten    --     10.2361                12.1662                 1.4482

                     37                     38                     39
                      A                      A                      A
 Frequencies --    611.5944               646.6370               687.9465
 Red. masses --     11.2031                 5.2299                 3.4547
 Frc consts  --      2.4690                 1.2884                 0.9633
 IR Inten    --      9.1405                 0.4340                 7.8268

                     40                     41                     42
                      A                      A                      A
 Frequencies --    719.3955               745.0888               748.0860
 Red. masses --      3.8001                 3.0926                 3.0029
 Frc consts  --      1.1587                 1.0116                 0.9901
 IR Inten    --     14.1365                10.8594                11.8637

                     43                     44                     45
                      A                      A                      A
 Frequencies --    769.0618               772.6856               805.0339
 Red. masses --      2.4869                 1.5695                 1.6024
 Frc consts  --      0.8666                 0.5521                 0.6119
 IR Inten    --      3.3681                11.3128                 9.6140

                     46                     47                     48
                      A                      A                      A
 Frequencies --    845.4322               881.4775               897.8577
 Red. masses --      1.3504                 1.5831                 2.6896
 Frc consts  --      0.5687                 0.7248                 1.2775
 IR Inten    --     12.8671                25.8096                42.9724

                     49                     50                     51
                      A                      A                      A
 Frequencies --    909.6265               920.9705               925.8097
 Red. masses --      1.4725                 1.6547                12.7879
 Frc consts  --      0.7179                 0.8269                 6.4579
 IR Inten    --     41.3457                16.6517                19.6794

                     52                     53                     54
                      A                      A                      A
 Frequencies --    956.8179               969.3705              1003.1153
 Red. masses --      1.4525                 2.1392                 1.3236
 Frc consts  --      0.7835                 1.1844                 0.7847
 IR Inten    --     87.2403                14.9560                 0.3658

                     55                     56                     57
                      A                      A                      A
 Frequencies --   1013.3207              1037.2393              1046.5271
 Red. masses --      2.9274                 6.8206                 2.0102
 Frc consts  --      1.7710                 4.3234                 1.2972
 IR Inten    --     12.5056                 4.3438                11.4714

                     58                     59                     60
                      A                      A                      A
 Frequencies --   1058.8258              1105.6426              1113.5407
 Red. masses --      1.6501                 1.5057                 1.2773
 Frc consts  --      1.0900                 1.0845                 0.9332
 IR Inten    --      5.9811                 7.0292                 2.9957

                     61                     62                     63
                      A                      A                      A
 Frequencies --   1137.1719              1175.1765              1175.9618
 Red. masses --      1.1703                 1.2828                 1.2004
 Frc consts  --      0.8917                 1.0438                 0.9780
 IR Inten    --      3.9416                 5.8639                 3.6992

                     64                     65                     66
                      A                      A                      A
 Frequencies --   1182.9191              1214.8617              1242.1668
 Red. masses --      1.4281                 2.2665                 1.6443
 Frc consts  --      1.1774                 1.9709                 1.4948
 IR Inten    --      1.6093                 2.4147                 5.5504

                     67                     68                     69
                      A                      A                      A
 Frequencies --   1278.7376              1279.3145              1296.1423
 Red. masses --      1.8993                 1.3401                 1.4182
 Frc consts  --      1.8298                 1.2922                 1.4037
 IR Inten    --      6.6939                13.8563                12.6136

                     70                     71                     72
                      A                      A                      A
 Frequencies --   1297.6786              1314.7746              1331.5277
 Red. masses --      1.7819                 1.1134                 1.9838
 Frc consts  --      1.7679                 1.1340                 2.0723
 IR Inten    --      2.3131                50.8315                 5.6801

                     73                     74                     75
                      A                      A                      A
 Frequencies --   1358.4758              1394.7683              1404.7492
 Red. masses --      4.2379                 1.4356                 1.1568
 Frc consts  --      4.6079                 1.6455                 1.3450
 IR Inten    --      1.4196                13.7206                 6.5417

                     76                     77                     78
                      A                      A                      A
 Frequencies --   1408.0183              1413.7462              1416.5346
 Red. masses --      1.2629                 1.0904                 1.1607
 Frc consts  --      1.4751                 1.2840                 1.3722
 IR Inten    --      3.6674                 7.5752                 2.8614

                     79                     80                     81
                      A                      A                      A
 Frequencies --   1428.3360              1431.8643              1444.7306
 Red. masses --      1.0514                 1.0500                 1.0725
 Frc consts  --      1.2638                 1.2683                 1.3189
 IR Inten    --      8.7143                 4.1615                 6.3563

                     82                     83                     84
                      A                      A                      A
 Frequencies --   1446.7018              1453.0032              1459.3370
 Red. masses --      1.2286                 1.0466                 1.1289
 Frc consts  --      1.5151                 1.3018                 1.4165
 IR Inten    --      2.4676                 0.6085                13.6564

                     85                     86                     87
                      A                      A                      A
 Frequencies --   1466.0516              1474.1648              1474.8477
 Red. masses --      2.3580                 1.0675                 1.0502
 Frc consts  --      2.9860                 1.3668                 1.3459
 IR Inten    --      7.8313                14.0537                19.0619

                     88                     89                     90
                      A                      A                      A
 Frequencies --   1514.0137              1653.6410              1672.7864
 Red. masses --      3.3880                 7.8490                 6.8550
 Frc consts  --      4.5756                12.6458                11.3016
 IR Inten    --     37.8528                28.5207                12.0500

                     91                     92                     93
                      A                      A                      A
 Frequencies --   1979.9173              2999.2972              3007.0949
 Red. masses --     13.1816                 1.0504                 1.0504
 Frc consts  --     30.4447                 5.5676                 5.5963
 IR Inten    --    974.0028                65.4362                99.9524

                     94                     95                     96
                      A                      A                      A
 Frequencies --   3025.4229              3051.6973              3053.8272
 Red. masses --      1.0633                 1.0620                 1.0323
 Frc consts  --      5.7344                 5.8271                 5.6724
 IR Inten    --     71.7249                 3.3504                14.7267

                     97                     98                     99
                      A                      A                      A
 Frequencies --   3058.3780              3107.7118              3121.5522
 Red. masses --      1.0340                 1.0995                 1.1014
 Frc consts  --      5.6983                 6.2566                 6.3232
 IR Inten    --     14.3448                 8.3931                 8.8399

                    100                    101                    102
                      A                      A                      A
 Frequencies --   3135.7186              3137.8054              3162.4794
 Red. masses --      1.0856                 1.0854                 1.1035
 Frc consts  --      6.2889                 6.2963                 6.5027
 IR Inten    --     12.2641                 5.8519                 5.1549

                    103                    104                    105
                      A                      A                      A
 Frequencies --   3165.1029              3173.7742              3177.6335
 Red. masses --      1.1040                 1.1054                 1.1033
 Frc consts  --      6.5164                 6.5602                 6.5638
 IR Inten    --      9.0795                 1.2439                 0.4710

                    106                    107                    108
                      A                      A                      A
 Frequencies --   3184.0746              3192.8042              3212.1562
 Red. masses --      1.1051                 1.1057                 1.0869
 Frc consts  --      6.6013                 6.6412                 6.6072
 IR Inten    --      6.1037                 3.6374                 0.2459

                    109                    110                    111
                      A                      A                      A
 Frequencies --   3225.7918              3235.2106              3755.2144
 Red. masses --      1.0929                 1.0995                 1.0690
 Frc consts  --      6.7005                 6.7803                 8.8815
 IR Inten    --      6.0927                 9.5826                 4.0363

 - Thermochemistry -
 -------------------
 Temperature   298.150 Kelvin.  Pressure   1.00000 Atm.
 Atom     1 has atomic number  8 and mass  15.99491

 Molecular mass:   373.02486 amu.
 Principal axes and moments of inertia in atomic units:
                           1         2         3
     Eigenvalues --  5022.161355467.006547118.45165
           X            0.98865  -0.14927   0.01731
           Y            0.14913   0.98878   0.00919
           Z           -0.01849  -0.00650   0.99981
 This molecule is an asymmetric top.
 Rotational symmetry number  1.
 Warning -- assumption of classical behavior for rotation
           may cause significant error
 Rotational temperatures (Kelvin)      0.01725     0.01584     0.01217
 Rotational constants (GHZ):           0.35936     0.33012     0.25353
 Zero-point vibrational energy     822805.8 (Joules/Mol)
                                  196.65531 (Kcal/Mol)
 Warning -- explicit consideration of  37 degrees of freedom as
           vibrations may cause significant error
 Vibrational temperatures:     55.10    93.40   102.87   105.02   121.28
          (Kelvin)            157.09   171.06   210.95   232.83   248.11
                              257.32   271.76   284.10   297.70   307.95
                              318.51   322.24   341.13   348.83   357.23
                              375.61   410.37   421.27   446.33   499.54
                              515.49   538.64   583.58   650.39   658.21
                              677.47   681.58   780.67   794.52   823.19
                              878.09   879.95   930.37   989.80  1035.05
                             1072.02  1076.33  1106.51  1111.72  1158.26
                             1216.39  1268.25  1291.82  1308.75  1325.07
                             1332.03  1376.65  1394.71  1443.26  1457.94
                             1492.36  1505.72  1523.41  1590.77  1602.14
                             1636.14  1690.82  1691.95  1701.96  1747.91
                             1787.20  1839.82  1840.65  1864.86  1867.07
                             1891.67  1915.77  1954.54  2006.76  2021.12
                             2025.82  2034.07  2038.08  2055.06  2060.13
                             2078.65  2081.48  2090.55  2099.66  2109.32
                             2120.99  2121.98  2178.33  2379.22  2406.77
                             2848.66  4315.32  4326.54  4352.91  4390.71
                             4393.78  4400.32  4471.30  4491.22  4511.60
                             4514.60  4550.10  4553.88  4566.35  4571.91
                             4581.17  4593.73  4621.58  4641.19  4654.75
                             5402.92

 Zero-point correction=                           0.313390 (Hartree/Particle)
 Thermal correction to Energy=                    0.335582
 Thermal correction to Enthalpy=                  0.336526
 Thermal correction to Gibbs Free Energy=         0.263072
 Sum of electronic and zero-point Energies=          -1239.472934
 Sum of electronic and thermal Energies=             -1239.450742
 Sum of electronic and thermal Enthalpies=           -1239.449798
 Sum of electronic and thermal Free Energies=        -1239.523252

                     E (Thermal)             CV                S
                      KCal/Mol        Cal/Mol-Kelvin    Cal/Mol-Kelvin
 Total                  210.581             83.162            154.597
 Electronic               0.000              0.000              1.377
 Translational            0.889              2.981             43.642
 Rotational               0.889              2.981             33.635
 Vibrational            208.804             77.200             75.942
 Vibration     1          0.594              1.982              5.345
 Vibration     2          0.597              1.971              4.302
 Vibration     3          0.598              1.968              4.112
 Vibration     4          0.599              1.967              4.071
 Vibration     5          0.601              1.960              3.788
 Vibration     6          0.606              1.942              3.283
 Vibration     7          0.609              1.934              3.118
 Vibration     8          0.617              1.906              2.716
 Vibration     9          0.622              1.889              2.528
 Vibration    10          0.626              1.876              2.409
 Vibration    11          0.629              1.868              2.340
 Vibration    12          0.633              1.855              2.239
 Vibration    13          0.637              1.843              2.157
 Vibration    14          0.641              1.830              2.071
 Vibration    15          0.644              1.820              2.009
 Vibration    16          0.648              1.809              1.948
 Vibration    17          0.649              1.805              1.927
 Vibration    18          0.656              1.784              1.825
 Vibration    19          0.659              1.775              1.785
 Vibration    20          0.662              1.766              1.743
 Vibration    21          0.669              1.744              1.655
 Vibration    22          0.683              1.701              1.502
 Vibration    23          0.688              1.687              1.458
 Vibration    24          0.699              1.654              1.361
 Vibration    25          0.725              1.581              1.179
 Vibration    26          0.733              1.558              1.130
 Vibration    27          0.745              1.525              1.062
 Vibration    28          0.771              1.458              0.942
 Vibration    29          0.811              1.356              0.790
 Vibration    30          0.816              1.344              0.773
 Vibration    31          0.828              1.315              0.735
 Vibration    32          0.831              1.308              0.727
 Vibration    33          0.898              1.156              0.560
 Vibration    34          0.908              1.135              0.540
 Vibration    35          0.928              1.091              0.500
 Vibration    36          0.969              1.010              0.432
 Vibration    37          0.971              1.007              0.430

 Optimization completed.
    -- Stationary point found.
 Normal termination of Gaussian 16 at Mon Jun 29 01:14:17 2020.
