 Gaussian 16, Revision A.03,
 Gaussian 16:  ES64L-G16RevA.03 25-Dec-2016

 ----------------------------------------------------------------------
 # genecp pbe1pbe EmpiricalDispersion=GD3BJ scrf=(SMD,solvent=water) ge
 om=allcheck
 ----------------------------------------------------------------------

 Structure from the checkpoint file:  "/scratch/js1212.578216/F-R2-S2-Up-GPOF-Disp.chk"
 -------------------
 Title Card Required
 -------------------
 Charge =  0 Multiplicity = 1

                         Standard orientation:
 ---------------------------------------------------------------------
 Center     Atomic      Atomic             Coordinates (Angstroms)
 Number     Number       Type             X           Y           Z
 ---------------------------------------------------------------------
      1          6           0       -1.151939   -3.962544    0.558182
      2          1           0       -0.285475    2.556884   -0.566992
      3          8           0       -0.716626   -1.229469   -1.043233
      4          1           0       -0.415737    1.725179   -2.900224
      5          8           0       -1.371627    0.224309    1.259597
      6          1           0       -0.142624   -0.443335   -0.997275
      7          6           0       -1.677267   -3.059907    1.653601
      8          1           0       -0.648761    4.244169   -0.110994
      9          6           0       -0.958824    3.406854   -0.760378
     10          1           0       -1.044474    0.075671   -3.019563
     11          1           0       -0.804241    3.732353   -1.799274
     12          6           0       -1.155966    1.096682   -3.414044
     13          1           0       -0.916462    1.099731   -4.491068
     14          1           0       -2.460970   -0.869383    2.684859
     15         44           0       -2.522476   -0.573076   -0.268846
     16          1           0       -2.040047    1.991904    1.398058
     17          7           0       -2.878379   -2.295915    1.250963
     18          6           0       -3.332583   -1.479429    2.392458
     19          6           0       -2.425151    3.083779   -0.464547
     20          1           0       -2.220184    3.778878    1.555518
     21          1           0       -2.023474    3.731018   -3.374958
     22          6           0       -2.595369    2.874456    1.045857
     23          6           0       -2.585689    1.606997   -3.213171
     24         15           0       -2.899822    1.448988   -1.339396
     25          1           0       -3.668596   -2.098202    3.241450
     26          6           0       -2.736201    3.011588   -3.796110
     27          1           0       -3.623581   -3.657502   -0.145643
     28          1           0       -3.649300   -4.960474    2.021939
     29          1           0       -2.538355    2.954720   -4.879845
     30          6           0       -3.968141   -3.183507    0.781035
     31          1           0       -2.970436    5.146411   -0.278619
     32          6           0       -3.385523   -1.507890   -1.583709
     33          6           0       -3.311230    4.270877   -0.856848
     34          1           0       -3.499375   -0.347028   -3.666031
     35          6           0       -3.547123    0.699401   -3.982956
     36          1           0       -3.260083    4.540575   -1.916796
     37          1           0       -3.262251    0.728784   -5.047844
     38          6           0       -4.399878   -0.517750    1.970277
     39          7           0       -4.217158    0.019045    0.749202
     40          6           0       -4.445199   -4.249772    1.756048
     41          1           0       -3.655205    2.767631    1.324412
     42          1           0       -4.811106   -2.536457    0.497572
     43          1           0       -3.755068    3.408787   -3.672244
     44          1           0       -4.851408   -3.826741    2.687131
     45          6           0       -4.766090    1.424333   -1.124998
     46          1           0       -5.254553   -4.824164    1.280705
     47          1           0       -4.365411    4.108882   -0.586736
     48          6           0       -5.083322    0.925832    0.250175
     49          6           0       -5.484656   -0.146618    2.757426
     50          1           0       -4.590436    1.045767   -3.920415
     51          1           0       -5.617569   -0.596102    3.742052
     52          1           0       -5.123787    0.677677   -1.852671
     53          1           0       -5.271474    2.375049   -1.341267
     54          6           0       -6.182402    1.338867    0.999575
     55          6           0       -6.381955    0.798364    2.266714
     56          1           0       -6.870851    2.076852    0.586881
     57          1           0       -7.238538    1.108996    2.867652
     58          1           0       -0.605686   -0.384237    1.380917
     59          8           0       -3.864640   -2.210037   -2.381266
     60          1           0       -0.538291    0.452679    4.178347
     61          6           0        0.529786    0.407224    3.921016
     62          1           0        1.102487    0.425697    4.861392
     63          1           0        0.709098   -0.540505    3.390848
     64          1           0        0.793053   -1.313438   -2.526050
     65          8           0        0.914354   -1.377227    1.294478
     66          1           0        1.469710   -3.385229   -1.458681
     67          8           0        1.033841    0.968959   -0.206259
     68          6           0        0.848822    1.569081    3.004353
     69          1           0        1.210538   -0.842763   -4.191276
     70          1           0        0.728506    2.536460    3.530913
     71          6           0        1.598314   -1.324797   -3.277970
     72          1           0        1.909416   -3.218437    0.246004
     73          1           0        1.809268   -2.372574   -3.534441
     74          1           0        0.138240    1.553386    2.167301
     75          6           0        2.245613   -3.627992   -0.719298
     76          1           0        2.317532   -4.726530   -0.647103
     77          1           0        1.582783    2.708241    0.868901
     78         44           0        2.488620   -0.139967    0.785383
     79          1           0        1.774517    1.126813   -1.965060
     80          7           0        2.204555    1.496392    2.420209
     81          6           0        2.428654    2.684342    1.575379
     82          6           0        2.854220   -0.571677   -2.832316
     83          1           0        2.163589    1.255523   -3.720493
     84          1           0        3.388514   -3.488706   -3.256466
     85          6           0        2.534038    0.924981   -2.735018
     86          6           0        3.614473   -3.058134   -1.106131
     87         15           0        3.373831   -1.167621   -1.092336
     88          1           0        2.456432    3.616605    2.164398
     89          6           0        4.091133   -3.652693   -2.431109
     90          1           0        3.124023    0.423785    3.957402
     91          1           0        2.371234    2.556600    5.089578
     92          1           0        4.189844   -4.743407   -2.299819
     93          6           0        3.255115    1.391487    3.458790
     94          1           0        3.558764   -0.367204   -4.844512
     95          6           0        3.577256   -1.096446    1.898391
     96          6           0        3.958876   -0.730433   -3.882872
     97          1           0        4.371453   -3.132182    0.962511
     98          6           0        4.636974   -3.467650   -0.044438
     99          1           0        4.289344   -1.763201   -4.037018
    100          1           0        4.675119   -4.569398   -0.019080
    101          6           0        3.669532    2.534326    0.749338
    102          7           0        3.887657    1.289767    0.285308
    103          6           0        3.296960    2.501937    4.498336
    104          1           0        3.433674    1.520436   -2.514190
    105          1           0        4.220929    1.336683    2.935109
    106          1           0        5.080059   -3.270427   -2.726989
    107          1           0        3.480847    3.493579    4.058238
    108          6           0        5.087659   -0.417508   -0.916735
    109          1           0        4.122499    2.299247    5.197095
    110          1           0        4.839019   -0.110506   -3.655288
    111          6           0        4.950517    1.014113   -0.500294
    112          6           0        4.528998    3.577813    0.423004
    113          1           0        5.653422   -3.117564   -0.282978
    114          1           0        4.338001    4.578487    0.812121
    115          1           0        5.554312   -0.972106   -0.086064
    116          1           0        5.733585   -0.525532   -1.798117
    117          6           0        5.836200    2.024742   -0.866990
    118          6           0        5.620301    3.319069   -0.402331
    119          1           0        6.686066    1.791114   -1.508875
    120          1           0        6.305544    4.122750   -0.677776
    121          1           0        0.211414    0.792374    0.293870
    122          8           0        4.182366   -1.673706    2.710448
    123          1           0       -1.907713   -3.639427    2.569062
    124          1           0       -0.895875   -2.330293    1.911520
    125          1           0       -1.824719   -4.803552    0.328486
    126          1           0       -0.192038   -4.385225    0.886384
    127          1           0       -0.968209   -3.369375   -0.350492
    128          1           0        0.467361   -1.563820    0.442873
 ---------------------------------------------------------------------

 SCF Done:  E(RPBE1PBE) =  -3110.02877554     A.U. after   19 cycles

 The electronic state is 1-A.
 Alpha  occ. eigenvalues --  -77.25446 -77.25437 -19.24798 -19.24778 -19.13002
 Alpha  occ. eigenvalues --  -19.12967 -19.12607 -19.12258 -14.43149 -14.43140
 Alpha  occ. eigenvalues --  -14.42207 -14.42148 -10.30904 -10.30855 -10.28768
 Alpha  occ. eigenvalues --  -10.28747 -10.28248 -10.28237 -10.25015 -10.25012
 Alpha  occ. eigenvalues --  -10.24923 -10.24877 -10.24877 -10.24863 -10.24659
 Alpha  occ. eigenvalues --  -10.24659 -10.24379 -10.24370 -10.23984 -10.23981
 Alpha  occ. eigenvalues --  -10.23978 -10.23972 -10.23637 -10.23626 -10.23511
 Alpha  occ. eigenvalues --  -10.23482 -10.20729 -10.20725 -10.20712 -10.20703
 Alpha  occ. eigenvalues --  -10.20623 -10.20620 -10.20461 -10.20440 -10.20183
 Alpha  occ. eigenvalues --  -10.20133 -10.19997 -10.19912 -10.19846 -10.19831
 Alpha  occ. eigenvalues --  -10.19253 -10.19239  -6.62824  -6.62809  -4.76504
 Alpha  occ. eigenvalues --   -4.76489  -4.76411  -4.76397  -4.76180  -4.76164
 Alpha  occ. eigenvalues --   -3.04216  -3.04210  -1.88126  -1.88091  -1.86863
 Alpha  occ. eigenvalues --   -1.86840  -1.86572  -1.86550  -1.12473  -1.12451
 Alpha  occ. eigenvalues --   -1.00590  -1.00572  -0.96372  -0.96319  -0.94336
 Alpha  occ. eigenvalues --   -0.91646  -0.91520  -0.90768  -0.84876  -0.84856
 Alpha  occ. eigenvalues --   -0.83688  -0.83682  -0.83172  -0.83161  -0.82265
 Alpha  occ. eigenvalues --   -0.82225  -0.77537  -0.77511  -0.76802  -0.76797
 Alpha  occ. eigenvalues --   -0.73961  -0.73950  -0.70358  -0.70302  -0.70183
 Alpha  occ. eigenvalues --   -0.70033  -0.69885  -0.69845  -0.69373  -0.69200
 Alpha  occ. eigenvalues --   -0.68789  -0.68766  -0.65958  -0.65924  -0.65604
 Alpha  occ. eigenvalues --   -0.65573  -0.63015  -0.62950  -0.61846  -0.61786
 Alpha  occ. eigenvalues --   -0.57482  -0.57389  -0.56789  -0.56743  -0.55877
 Alpha  occ. eigenvalues --   -0.55650  -0.53326  -0.53225  -0.52922  -0.52904
 Alpha  occ. eigenvalues --   -0.51907  -0.51804  -0.51026  -0.50995  -0.50080
 Alpha  occ. eigenvalues --   -0.50050  -0.48550  -0.48453  -0.47567  -0.47506
 Alpha  occ. eigenvalues --   -0.46961  -0.46472  -0.46383  -0.46334  -0.46020
 Alpha  occ. eigenvalues --   -0.45908  -0.45576  -0.45546  -0.45169  -0.45017
 Alpha  occ. eigenvalues --   -0.44888  -0.44782  -0.44655  -0.44507  -0.44311
 Alpha  occ. eigenvalues --   -0.44242  -0.43916  -0.43821  -0.43632  -0.43589
 Alpha  occ. eigenvalues --   -0.43098  -0.43081  -0.43019  -0.42925  -0.42041
 Alpha  occ. eigenvalues --   -0.41961  -0.41709  -0.41598  -0.41552  -0.41187
 Alpha  occ. eigenvalues --   -0.40801  -0.40605  -0.40467  -0.40130  -0.39742
 Alpha  occ. eigenvalues --   -0.39672  -0.39621  -0.39243  -0.38698  -0.38628
 Alpha  occ. eigenvalues --   -0.38338  -0.38233  -0.37928  -0.37855  -0.37709
 Alpha  occ. eigenvalues --   -0.37591  -0.37415  -0.37289  -0.36758  -0.36709
 Alpha  occ. eigenvalues --   -0.36551  -0.36454  -0.35894  -0.35849  -0.35835
 Alpha  occ. eigenvalues --   -0.35655  -0.35568  -0.35242  -0.34948  -0.34853
 Alpha  occ. eigenvalues --   -0.34719  -0.34422  -0.34296  -0.34027  -0.33851
 Alpha  occ. eigenvalues --   -0.33689  -0.33219  -0.33044  -0.32677  -0.32630
 Alpha  occ. eigenvalues --   -0.32496  -0.32417  -0.31849  -0.31686  -0.31365
 Alpha  occ. eigenvalues --   -0.31322  -0.30370  -0.30249  -0.29738  -0.29561
 Alpha  occ. eigenvalues --   -0.28665  -0.28587  -0.27765  -0.27713  -0.27005
 Alpha  occ. eigenvalues --   -0.26932  -0.26591  -0.26528  -0.25436  -0.25279
 Alpha  occ. eigenvalues --   -0.23002  -0.22474  -0.21262  -0.20424  -0.19518
 Alpha  occ. eigenvalues --   -0.19281
 Alpha virt. eigenvalues --   -0.04116  -0.04109  -0.02034  -0.01988  -0.00294
 Alpha virt. eigenvalues --   -0.00163   0.00946   0.01344   0.02160   0.02248
 Alpha virt. eigenvalues --    0.02559   0.02795   0.02938   0.02988   0.03717

 Mulliken charges:
               1
     1  C   -0.375624
     2  H    0.130442
     3  O   -0.764058
     4  H    0.127968
     5  O   -0.826513
     6  H    0.302845
     7  C   -0.145253
     8  H    0.102976
     9  C   -0.387494
    10  H    0.129006
    11  H    0.121938
    12  C   -0.341652
    13  H    0.108919
    14  H    0.183377
    15  Ru   1.019449
    16  H    0.159404
    17  N   -0.205123
    18  C   -0.146501
    19  C    0.025080
    20  H    0.104559
    21  H    0.120662
    22  C   -0.412207
    23  C    0.006845
    24  P    0.069050
    25  H    0.127335
    26  C   -0.337236
    27  H    0.128799
    28  H    0.112566
    29  H    0.108217
    30  C   -0.125277
    31  H    0.106876
    32  C   -0.204075
    33  C   -0.337440
    34  H    0.144044
    35  C   -0.378432
    36  H    0.123227
    37  H    0.110264
    38  C    0.115580
    39  N   -0.142695
    40  C   -0.330878
    41  H    0.122224
    42  H    0.143173
    43  H    0.112937
    44  H    0.111510
    45  C   -0.240605
    46  H    0.117457
    47  H    0.112204
    48  C    0.025991
    49  C   -0.151124
    50  H    0.117658
    51  H    0.162587
    52  H    0.171705
    53  H    0.141058
    54  C   -0.121957
    55  C   -0.137225
    56  H    0.164121
    57  H    0.163309
    58  H    0.307294
    59  O   -0.305469
    60  H    0.126270
    61  C   -0.372886
    62  H    0.117776
    63  H    0.143942
    64  H    0.132913
    65  O   -0.764854
    66  H    0.128242
    67  O   -0.815030
    68  C   -0.122189
    69  H    0.106480
    70  H    0.114831
    71  C   -0.401927
    72  H    0.123545
    73  H    0.125825
    74  H    0.126802
    75  C   -0.348172
    76  H    0.108845
    77  H    0.196383
    78  Ru   1.020089
    79  H    0.155891
    80  N   -0.203999
    81  C   -0.151354
    82  C    0.031557
    83  H    0.107661
    84  H    0.120925
    85  C   -0.412781
    86  C    0.005096
    87  P    0.068375
    88  H    0.125463
    89  C   -0.335504
    90  H    0.129635
    91  H    0.112528
    92  H    0.107831
    93  C   -0.125016
    94  H    0.106798
    95  C   -0.196273
    96  C   -0.337422
    97  H    0.143160
    98  C   -0.378159
    99  H    0.124001
   100  H    0.110303
   101  C    0.113610
   102  N   -0.140175
   103  C   -0.331412
   104  H    0.124533
   105  H    0.141047
   106  H    0.112610
   107  H    0.111581
   108  C   -0.239223
   109  H    0.117565
   110  H    0.111923
   111  C    0.027383
   112  C   -0.153876
   113  H    0.118368
   114  H    0.162598
   115  H    0.172301
   116  H    0.140851
   117  C   -0.121161
   118  C   -0.137289
   119  H    0.164051
   120  H    0.163113
   121  H    0.299350
   122  O   -0.302915
   123  H    0.115955
   124  H    0.144611
   125  H    0.117151
   126  H    0.128024
   127  H    0.138604
   128  H    0.299402
 Sum of Mulliken charges =  -0.00000

 Dipole moment (field-independent basis, Debye):
    X=             -0.8783    Y=             10.0803    Z=              0.4492  Tot=             10.1284
 Quadrupole moment (field-independent basis, Debye-Ang):
   XX=           -263.5777   YY=           -349.5208   ZZ=           -363.6973
   XY=              7.2942   XZ=            -36.4432   YZ=             -1.0328

 Normal termination of Gaussian 16 at Fri Feb 28 14:39:13 2020.
