 Gaussian 16, Revision A.03,
 Gaussian 16:  ES64L-G16RevA.03 25-Dec-2016

 ----------------------------------------------------------------------
 # genecp pbe1pbe EmpiricalDispersion=GD3BJ scrf=(SMD,solvent=water) ge
 om=allcheck
 ----------------------------------------------------------------------

 Structure from the checkpoint file:  "/scratch/js1212.578217/F-R2-R2-Up-GPOF-Disp.chk"
 -------------------
 Title Card Required
 -------------------
 Charge =  0 Multiplicity = 1

                         Standard orientation:
 ---------------------------------------------------------------------
 Center     Atomic      Atomic             Coordinates (Angstroms)
 Number     Number       Type             X           Y           Z
 ---------------------------------------------------------------------
      1          6           0       -1.334762    1.629619    3.696831
      2          1           0       -0.269766   -1.454555   -1.999980
      3          8           0       -1.000000   -0.948466    1.556126
      4          1           0       -0.694179   -3.518081   -0.617824
      5          8           0       -1.161817    0.999211   -0.435771
      6          6           0       -1.637923    2.425744    2.445635
      7          1           0       -0.437056   -1.556006   -3.772193
      8          6           0       -0.881374   -1.875254   -2.814747
      9          1           0       -1.365125   -2.973398    0.925887
     10          1           0       -0.801423   -2.971519   -2.771874
     11          6           0       -1.506817   -3.690452    0.102256
     12          1           0       -1.410684   -4.721478    0.483546
     13          1           0       -2.116554    2.783277   -0.019234
     14         44           0       -2.602570   -0.084849    0.602405
     15          1           0       -1.900177    0.682041   -2.254024
     16          7           0       -2.837157    1.950138    1.728060
     17          6           0       -3.062706    2.803872    0.546471
     18          6           0       -2.334920   -1.403934   -2.769554
     19          1           0       -1.860510    0.282700   -4.009539
     20          1           0       -2.247876   -4.413378   -2.457452
     21          6           0       -2.385223    0.102667   -3.055916
     22          6           0       -2.887019   -3.529203   -0.547600
     23         15           0       -3.009049   -1.684964   -1.006003
     24          1           0       -3.304962    3.844145    0.823652
     25          6           0       -3.044578   -4.508923   -1.709251
     26          1           0       -3.850939    1.179032    3.379480
     27          1           0       -3.642706    3.646138    3.904452
     28          1           0       -2.988251   -5.533365   -1.304024
     29          6           0       -4.033072    1.929512    2.600667
     30          1           0       -2.709592   -1.811609   -4.837709
     31          6           0       -3.719577   -0.907444    1.793947
     32          6           0       -3.149477   -2.096357   -3.866963
     33          1           0       -3.902297   -3.257533    1.387185
     34          6           0       -3.961622   -3.874143    0.484954
     35          1           0       -3.138033   -3.189669   -3.812887
     36          1           0       -3.810695   -4.921111    0.796194
     37          6           0       -4.132091    2.223107   -0.329302
     38          7           0       -4.097533    0.880187   -0.429388
     39          6           0       -4.427342    3.251434    3.242660
     40          1           0       -3.419252    0.456533   -3.186564
     41          1           0       -4.869043    1.547180    1.996835
     42          1           0       -4.017915   -4.410087   -2.213480
     43          1           0       -4.674076    4.027960    2.502984
     44          6           0       -4.831543   -1.277086   -1.218535
     45          1           0       -5.326313    3.091312    3.856690
     46          1           0       -4.196366   -1.757855   -3.886103
     47          6           0       -4.987102    0.214136   -1.197425
     48          6           0       -5.085338    2.964805   -1.017272
     49          1           0       -4.979606   -3.805404    0.070735
     50          1           0       -5.101113    4.050788   -0.918387
     51          1           0       -5.325187   -1.693000   -0.325005
     52          1           0       -5.307413   -1.720396   -2.103864
     53          6           0       -5.959746    0.909723   -1.911167
     54          6           0       -6.006722    2.298555   -1.822265
     55          1           0       -6.668965    0.361308   -2.531920
     56          1           0       -6.762855    2.859103   -2.374692
     57          1           0       -0.424380    0.376642   -0.585262
     58          8           0       -4.371274   -1.370255    2.641454
     59          6           0        1.303591   -1.373520    3.788029
     60          1           0        0.294812    1.588003   -1.998941
     61          8           0        1.038257    1.025110    1.614414
     62          1           0        0.889963    3.599724   -0.600819
     63          8           0        1.091201   -0.889203   -0.408052
     64          6           0        1.550192   -2.252043    2.580131
     65          1           0        0.435621    1.609290   -3.770683
     66          6           0        0.919064    1.935543   -2.834649
     67          1           0        1.624114    3.105596    0.934335
     68          1           0        0.910094    3.035312   -2.832834
     69          6           0        1.748152    3.771865    0.065322
     70          1           0        1.716004    4.823762    0.396691
     71          1           0        1.983094   -2.725476    0.110550
     72         44           0        2.602254    0.122761    0.615519
     73          1           0        1.748508   -0.659068   -2.220656
     74          7           0        2.759340   -1.867620    1.820920
     75          6           0        2.928476   -2.784235    0.677476
     76          6           0        2.339582    1.370240   -2.793263
     77          1           0        1.763991   -0.318898   -3.983723
     78          1           0        2.408594    4.374809   -2.553884
     79          6           0        2.287027   -0.144090   -3.028387
     80          6           0        3.082647    3.511601   -0.644244
     81         15           0        3.067840    1.649734   -1.052310
     82          1           0        3.118973   -3.822733    0.996868
     83          6           0        3.238710    4.449171   -1.840649
     84          1           0        3.843349   -1.074079    3.418660
     85          1           0        3.518207   -3.494577    4.069137
     86          1           0        3.251465    5.485778   -1.463710
     87          6           0        3.970911   -1.868378    2.673598
     88          1           0        2.696096    1.694905   -4.879456
     89          6           0        3.768444    0.936228    1.763478
     90          6           0        3.176643    1.972826   -3.926160
     91          1           0        4.190245    3.228971    1.239901
     92          6           0        4.226824    3.823821    0.322056
     93          1           0        3.244618    3.065202   -3.902588
     94          1           0        4.142797    4.882697    0.618086
     95          6           0        4.007949   -2.295057   -0.239207
     96          7           0        4.032473   -0.959184   -0.403532
     97          6           0        4.307927   -3.176945    3.372953
     98          1           0        3.294472   -0.574806   -3.132818
     99          1           0        4.814615   -1.559726    2.038983
    100          1           0        4.184378    4.286579   -2.379527
    101          1           0        4.495842   -4.001593    2.668922
    102          6           0        4.856989    1.124958   -1.290995
    103          1           0        5.227789   -3.035812    3.960197
    104          1           0        4.195858    1.559271   -3.957055
    105          6           0        4.933883   -0.370269   -1.217121
    106          6           0        4.908319   -3.111794   -0.914519
    107          1           0        5.215350    3.699072   -0.146781
    108          1           0        4.876460   -4.191735   -0.766557
    109          1           0        5.394068    1.541562   -0.423117
    110          1           0        5.337251    1.511118   -2.200344
    111          6           0        5.855495   -1.142170   -1.920952
    112          6           0        5.838377   -2.525952   -1.769760
    113          1           0        6.576096   -0.656671   -2.579714
    114          1           0        6.553641   -3.145994   -2.313190
    115          1           0        0.380082   -1.027652    0.256934
    116          8           0        4.442572    1.397997    2.594656
    117          1           0       -1.752430    3.502264    2.680892
    118          1           0       -0.800122    2.330870    1.746307
    119          1           0       -2.027147    1.848737    4.524795
    120          1           0       -0.314323    1.869845    4.024278
    121          1           0       -1.363843    0.552280    3.474613
    122          1           0        1.625893   -3.318341    2.870754
    123          1           0        0.690514   -2.148857    1.903086
    124          1           0        2.034831   -1.528192    4.597038
    125          1           0        0.304623   -1.602785    4.184609
    126          1           0        1.304280   -0.316848    3.480182
    127          1           0       -0.385132   -0.221792    1.787718
    128          1           0        0.418862    1.217748    0.888922
 ---------------------------------------------------------------------

 SCF Done:  E(RPBE1PBE) =  -3110.02943082     A.U. after   18 cycles

 The electronic state is 1-A.
 Alpha  occ. eigenvalues --  -77.25464 -77.25418 -19.24867 -19.24845 -19.13089
 Alpha  occ. eigenvalues --  -19.12815 -19.12770 -19.12561 -14.43119 -14.43082
 Alpha  occ. eigenvalues --  -14.42095 -14.42067 -10.30957 -10.30943 -10.28789
 Alpha  occ. eigenvalues --  -10.28711 -10.28234 -10.28165 -10.25018 -10.24994
 Alpha  occ. eigenvalues --  -10.24971 -10.24942 -10.24939 -10.24870 -10.24661
 Alpha  occ. eigenvalues --  -10.24589 -10.24368 -10.24337 -10.23994 -10.23986
 Alpha  occ. eigenvalues --  -10.23969 -10.23953 -10.23763 -10.23582 -10.23556
 Alpha  occ. eigenvalues --  -10.23447 -10.20751 -10.20747 -10.20697 -10.20685
 Alpha  occ. eigenvalues --  -10.20655 -10.20654 -10.20487 -10.20456 -10.20190
 Alpha  occ. eigenvalues --  -10.20158 -10.20056 -10.20041 -10.19961 -10.19807
 Alpha  occ. eigenvalues --  -10.19339 -10.19279  -6.62849  -6.62805  -4.76528
 Alpha  occ. eigenvalues --   -4.76484  -4.76437  -4.76390  -4.76205  -4.76163
 Alpha  occ. eigenvalues --   -3.04208  -3.04147  -1.88122  -1.88049  -1.86833
 Alpha  occ. eigenvalues --   -1.86806  -1.86572  -1.86497  -1.12553  -1.12517
 Alpha  occ. eigenvalues --   -1.00583  -1.00514  -0.96354  -0.96264  -0.94235
 Alpha  occ. eigenvalues --   -0.91798  -0.91466  -0.90941  -0.84910  -0.84855
 Alpha  occ. eigenvalues --   -0.83677  -0.83627  -0.83168  -0.83136  -0.82343
 Alpha  occ. eigenvalues --   -0.82233  -0.77580  -0.77466  -0.76828  -0.76776
 Alpha  occ. eigenvalues --   -0.73962  -0.73932  -0.70355  -0.70289  -0.70145
 Alpha  occ. eigenvalues --   -0.70092  -0.69924  -0.69861  -0.69391  -0.69291
 Alpha  occ. eigenvalues --   -0.68874  -0.68707  -0.66009  -0.65899  -0.65606
 Alpha  occ. eigenvalues --   -0.65580  -0.63042  -0.62935  -0.61904  -0.61795
 Alpha  occ. eigenvalues --   -0.57516  -0.57380  -0.56829  -0.56770  -0.55958
 Alpha  occ. eigenvalues --   -0.55646  -0.53301  -0.53226  -0.52957  -0.52881
 Alpha  occ. eigenvalues --   -0.51999  -0.51835  -0.51110  -0.50953  -0.50072
 Alpha  occ. eigenvalues --   -0.50040  -0.48580  -0.48544  -0.47556  -0.47500
 Alpha  occ. eigenvalues --   -0.46922  -0.46472  -0.46395  -0.46147  -0.46068
 Alpha  occ. eigenvalues --   -0.45760  -0.45608  -0.45460  -0.45299  -0.45033
 Alpha  occ. eigenvalues --   -0.44950  -0.44801  -0.44625  -0.44404  -0.44234
 Alpha  occ. eigenvalues --   -0.44000  -0.43958  -0.43897  -0.43655  -0.43585
 Alpha  occ. eigenvalues --   -0.43321  -0.43098  -0.42988  -0.42878  -0.42105
 Alpha  occ. eigenvalues --   -0.41946  -0.41924  -0.41626  -0.41257  -0.41194
 Alpha  occ. eigenvalues --   -0.41036  -0.40936  -0.40509  -0.40326  -0.39857
 Alpha  occ. eigenvalues --   -0.39706  -0.39401  -0.38964  -0.38683  -0.38652
 Alpha  occ. eigenvalues --   -0.38372  -0.38269  -0.38035  -0.37779  -0.37720
 Alpha  occ. eigenvalues --   -0.37677  -0.37262  -0.37221  -0.36822  -0.36697
 Alpha  occ. eigenvalues --   -0.36605  -0.36515  -0.36174  -0.35905  -0.35775
 Alpha  occ. eigenvalues --   -0.35551  -0.35528  -0.35277  -0.35006  -0.34872
 Alpha  occ. eigenvalues --   -0.34631  -0.34548  -0.34247  -0.34105  -0.33829
 Alpha  occ. eigenvalues --   -0.33685  -0.33502  -0.33048  -0.32649  -0.32593
 Alpha  occ. eigenvalues --   -0.32423  -0.32313  -0.32132  -0.31798  -0.31392
 Alpha  occ. eigenvalues --   -0.31208  -0.30474  -0.30393  -0.29747  -0.29566
 Alpha  occ. eigenvalues --   -0.28895  -0.28444  -0.27760  -0.27202  -0.27003
 Alpha  occ. eigenvalues --   -0.26930  -0.26701  -0.26529  -0.25809  -0.25455
 Alpha  occ. eigenvalues --   -0.23080  -0.22648  -0.21428  -0.20333  -0.19297
 Alpha  occ. eigenvalues --   -0.19185
 Alpha virt. eigenvalues --   -0.04120  -0.04081  -0.02047  -0.02012  -0.00232
 Alpha virt. eigenvalues --   -0.00104   0.00912   0.01410   0.02216   0.02299
 Alpha virt. eigenvalues --    0.02513   0.02666   0.02924   0.03063   0.03659

 Mulliken charges:
               1
     1  C   -0.368570
     2  H    0.117585
     3  O   -0.764690
     4  H    0.124327
     5  O   -0.793595
     6  C   -0.137979
     7  H    0.107900
     8  C   -0.376679
     9  H    0.147516
    10  H    0.123427
    11  C   -0.363075
    12  H    0.106333
    13  H    0.180249
    14  Ru   1.028824
    15  H    0.157607
    16  N   -0.200576
    17  C   -0.147047
    18  C    0.025411
    19  H    0.106879
    20  H    0.119183
    21  C   -0.410266
    22  C    0.006450
    23  P    0.071860
    24  H    0.125837
    25  C   -0.334229
    26  H    0.130078
    27  H    0.112557
    28  H    0.107774
    29  C   -0.126116
    30  H    0.108235
    31  C   -0.205050
    32  C   -0.338084
    33  H    0.141623
    34  C   -0.376518
    35  H    0.121539
    36  H    0.110767
    37  C    0.101371
    38  N   -0.143754
    39  C   -0.330877
    40  H    0.123667
    41  H    0.141770
    42  H    0.113253
    43  H    0.111131
    44  C   -0.241396
    45  H    0.117396
    46  H    0.113160
    47  C    0.031372
    48  C   -0.147889
    49  H    0.118672
    50  H    0.162276
    51  H    0.169233
    52  H    0.140436
    53  C   -0.121426
    54  C   -0.141696
    55  H    0.163788
    56  H    0.162942
    57  H    0.290417
    58  O   -0.299974
    59  C   -0.370237
    60  H    0.119329
    61  O   -0.746526
    62  H    0.122751
    63  O   -0.822220
    64  C   -0.134466
    65  H    0.108118
    66  C   -0.379003
    67  H    0.128126
    68  H    0.125310
    69  C   -0.352608
    70  H    0.107804
    71  H    0.184171
    72  Ru   1.022277
    73  H    0.166302
    74  N   -0.206112
    75  C   -0.146582
    76  C    0.023015
    77  H    0.108771
    78  H    0.120155
    79  C   -0.411186
    80  C    0.007027
    81  P    0.071194
    82  H    0.126103
    83  C   -0.334802
    84  H    0.128846
    85  H    0.112674
    86  H    0.107914
    87  C   -0.125562
    88  H    0.108309
    89  C   -0.204609
    90  C   -0.337465
    91  H    0.143135
    92  C   -0.376155
    93  H    0.122017
    94  H    0.110134
    95  C    0.109887
    96  N   -0.144727
    97  C   -0.331589
    98  H    0.125572
    99  H    0.142167
   100  H    0.112873
   101  H    0.111280
   102  C   -0.238506
   103  H    0.117352
   104  H    0.113457
   105  C    0.031493
   106  C   -0.149903
   107  H    0.117679
   108  H    0.163001
   109  H    0.171683
   110  H    0.141471
   111  C   -0.122855
   112  C   -0.137907
   113  H    0.164330
   114  H    0.163201
   115  H    0.309421
   116  O   -0.302738
   117  H    0.116716
   118  H    0.141656
   119  H    0.119560
   120  H    0.129202
   121  H    0.130134
   122  H    0.113754
   123  H    0.135238
   124  H    0.117681
   125  H    0.128200
   126  H    0.135536
   127  H    0.279367
   128  H    0.287003
 Sum of Mulliken charges =  -0.00000

 Dipole moment (field-independent basis, Debye):
    X=              0.0347    Y=             -0.4091    Z=            -11.6361  Tot=             11.6434
 Quadrupole moment (field-independent basis, Debye-Ang):
   XX=           -273.1633   YY=           -330.7283   ZZ=           -376.9130
   XY=            -33.5148   XZ=             -1.2663   YZ=             -0.1037

 Normal termination of Gaussian 16 at Fri Feb 28 18:23:06 2020.
