 Gaussian 16, Revision A.03,
 Gaussian 16:  ES64L-G16RevA.03 25-Dec-2016

 ----------------------------------------------------------------------
 # genecp pbe1pbe EmpiricalDispersion=GD3BJ scrf=(SMD,solvent=water) ge
 om=allcheck
 ----------------------------------------------------------------------

 Structure from the checkpoint file:  "/scratch/js1212.578215/F-R2-S2-Down-GPOF-Disp.chk"
 -------------------
 Title Card Required
 -------------------
 Charge =  0 Multiplicity = 1

                         Standard orientation:
 ---------------------------------------------------------------------
 Center     Atomic      Atomic             Coordinates (Angstroms)
 Number     Number       Type             X           Y           Z
 ---------------------------------------------------------------------
      1          6           0        0.449441    1.224883   -3.776389
      2          1           0        0.850011   -1.789010    2.235086
      3          8           0        0.887125   -1.267903   -1.444928
      4          1           0        1.577877   -3.690978    0.878995
      5          8           0        0.980951    0.884908    0.399537
      6          6           0        0.799213    2.229610   -2.698154
      7          1           0        1.265701   -1.625333    3.956641
      8          1           0        0.644030    3.267905   -3.058716
      9          6           0        1.657762   -1.928976    2.971315
     10          1           0        1.931118   -3.166057   -0.772941
     11          1           0        1.883582   -3.003100    3.032921
     12          1           0        0.121050    2.067332   -1.848963
     13          6           0        2.325051   -3.748653    0.075379
     14          1           0        2.428152   -4.807184   -0.217730
     15          1           0        1.573062    2.837851   -0.372164
     16         44           0        2.449619   -0.090441   -0.754676
     17          1           0        1.790482    0.719936    2.131467
     18          7           0        2.164943    2.065454   -2.185773
     19          6           0        2.410378    2.983795   -1.075235
     20          6           0        2.902983   -1.091498    2.670025
     21          1           0        2.200944    0.537291    3.874864
     22          1           0        3.529875   -4.029528    2.562152
     23          6           0        2.563966    0.393866    2.842854
     24          6           0        3.693272   -3.219809    0.520136
     25         15           0        3.429885   -1.363337    0.854466
     26          1           0        2.444938    4.042580   -1.393327
     27          6           0        4.219515   -4.022715    1.709647
     28          1           0        3.059949    1.300470   -3.904113
     29          1           0        2.344968    3.632087   -4.574341
     30          1           0        4.346139   -5.069297    1.385737
     31          6           0        3.206421    2.145889   -3.218955
     32          1           0        3.615863   -1.236561    4.683868
     33          6           0        3.539383   -0.758377   -2.058055
     34          6           0        4.014716   -1.421657    3.672397
     35          1           0        4.386621   -2.907118   -1.547879
     36          6           0        4.691478   -3.408261   -0.623969
     37          1           0        4.355251   -2.462074    3.642012
     38          1           0        4.751867   -4.486694   -0.845013
     39          6           0        3.660117    2.638394   -0.315808
     40          7           0        3.872259    1.328865   -0.072699
     41          6           0        3.270339    3.446405   -4.008835
     42          1           0        3.453625    1.031712    2.723336
     43          1           0        4.171713    1.964082   -2.721471
     44          1           0        5.203280   -3.666737    2.052124
     45          1           0        3.456566    4.320977   -3.366603
     46          6           0        5.122816   -0.554398    0.795792
     47          1           0        4.095984    3.391543   -4.734301
     48          1           0        4.887961   -0.762659    3.553929
     49          6           0        4.957735    0.926938    0.626822
     50          6           0        4.540490    3.604554    0.162958
     51          1           0        5.707420   -3.078965   -0.355642
     52          1           0        4.349297    4.656603   -0.051216
     53          1           0        5.594539   -0.951831   -0.117792
     54          1           0        5.778178   -0.795073    1.643428
     55          6           0        5.861727    1.854992    1.138573
     56          6           0        5.647543    3.209478    0.906754
     57          1           0        6.724713    1.509396    1.708334
     58          1           0        6.345771    3.952527    1.296380
     59          1           0        0.161017    0.800236   -0.132894
     60          8           0        4.156211   -1.098205   -2.987081
     61          6           0       -1.193005   -3.844728   -1.181515
     62          1           0       -0.264194    2.422615    1.010260
     63          8           0       -0.737977   -1.413727    0.853271
     64          1           0       -0.394359    1.230529    3.135837
     65          8           0       -1.364111    0.399540   -1.196884
     66          1           0       -0.164168   -0.631169    0.950560
     67          6           0       -1.710735   -2.774797   -2.118918
     68          1           0       -0.628766    4.160442    0.816219
     69          6           0       -0.942096    3.232285    1.325372
     70          1           0       -1.014842   -0.420428    2.992624
     71          1           0       -0.799628    3.394214    2.403585
     72          6           0       -1.128348    0.524000    3.546286
     73          1           0       -0.883186    0.355175    4.608759
     74          1           0       -2.467587   -0.434105   -2.778666
     75         44           0       -2.532853   -0.624600    0.180441
     76          1           0       -2.005878    2.177790   -1.043322
     77          7           0       -2.903659   -2.071898   -1.597399
     78          6           0       -3.346200   -1.074789   -2.591113
     79          6           0       -2.404656    2.957233    0.968356
     80          1           0       -2.182918    3.967275   -0.912687
     81          1           0       -2.019980    3.124874    3.943602
     82          6           0       -2.562239    2.993521   -0.557361
     83          6           0       -2.562864    1.050270    3.437581
     84         15           0       -2.886942    1.202781    1.565714
     85          1           0       -3.685926   -1.542941   -3.530167
     86          6           0       -2.723450    2.338777    4.243377
     87          1           0       -3.667712   -3.634498   -0.442064
     88          1           0       -3.699382   -4.570626   -2.789460
     89          1           0       -2.520852    2.107714    5.302796
     90          6           0       -4.004305   -3.012671   -1.280024
     91          1           0       -2.944254    5.023811    1.125108
     92          6           0       -3.417762   -1.746985    1.322006
     93          6           0       -3.297606    4.064288    1.539234
     94          1           0       -3.445202   -0.963179    3.572073
     95          6           0       -3.512123    0.018879    4.050086
     96          1           0       -3.268002    4.149749    2.630618
     97          1           0       -3.230664   -0.115099    5.107835
     98          6           0       -4.404719   -0.183632   -2.018410
     99          7           0       -4.217512    0.145223   -0.726498
    100          6           0       -4.488182   -3.901614   -2.416062
    101          1           0       -3.619726    2.933712   -0.857712
    102          1           0       -4.842222   -2.411805   -0.897224
    103          1           0       -3.746774    2.740208    4.188069
    104          1           0       -4.883289   -3.328899   -3.268586
    105          6           0       -4.754007    1.227288    1.354880
    106          1           0       -5.307453   -4.534329   -2.042714
    107          1           0       -4.346031    3.954998    1.224128
    108          6           0       -5.075133    0.965777   -0.083903
    109          6           0       -5.485432    0.321740   -2.733053
    110          1           0       -4.561228    0.353074    4.037180
    111          1           0       -5.622698    0.040530   -3.777685
    112          1           0       -5.117033    0.372915    1.949236
    113          1           0       -5.252292    2.132687    1.726184
    114          6           0       -6.169434    1.506699   -0.754721
    115          6           0       -6.373272    1.182802   -2.093186
    116          1           0       -6.851229    2.173570   -0.226202
    117          1           0       -7.226393    1.596033   -2.634267
    118          1           0       -0.610462   -0.192386   -1.420344
    119          8           0       -3.916517   -2.560865    1.990780
    120          1           0       -0.625512    1.300583   -3.993994
    121          1           0        0.648117    0.204435   -3.412919
    122          1           0        0.996850    1.392506   -4.717190
    123          1           0       -1.006775   -3.407402   -0.188772
    124          1           0       -0.234522   -4.214393   -1.572023
    125          1           0       -1.871638   -4.707223   -1.089975
    126          1           0       -0.921179   -2.022448   -2.259561
    127          1           0       -1.947647   -3.199405   -3.114119
    128          1           0        0.392914   -1.529610   -0.635549
 ---------------------------------------------------------------------

 SCF Done:  E(RPBE1PBE) =  -3110.03004827     A.U. after   18 cycles

 The electronic state is 1-A.
 Alpha  occ. eigenvalues --  -77.26058 -77.25455 -19.25015 -19.24819 -19.13244
 Alpha  occ. eigenvalues --  -19.13077 -19.12758 -19.12371 -14.43167 -14.43159
 Alpha  occ. eigenvalues --  -14.42253 -14.40487 -10.31197 -10.30902 -10.28896
 Alpha  occ. eigenvalues --  -10.28771 -10.28275 -10.28254 -10.25105 -10.25036
 Alpha  occ. eigenvalues --  -10.25024 -10.24907 -10.24891 -10.24853 -10.24680
 Alpha  occ. eigenvalues --  -10.24660 -10.24386 -10.24065 -10.23995 -10.23990
 Alpha  occ. eigenvalues --  -10.23970 -10.23904 -10.23662 -10.23636 -10.23526
 Alpha  occ. eigenvalues --  -10.23510 -10.20825 -10.20746 -10.20731 -10.20704
 Alpha  occ. eigenvalues --  -10.20632 -10.20574 -10.20538 -10.20452 -10.20161
 Alpha  occ. eigenvalues --  -10.20150 -10.20118 -10.19983 -10.19946 -10.19796
 Alpha  occ. eigenvalues --  -10.19379 -10.19242  -6.63397  -6.62829  -4.77069
 Alpha  occ. eigenvalues --   -4.76976  -4.76786  -4.76509  -4.76416  -4.76184
 Alpha  occ. eigenvalues --   -3.04486  -3.04245  -1.88377  -1.88129  -1.87222
 Alpha  occ. eigenvalues --   -1.86886  -1.86668  -1.86595  -1.12627  -1.12494
 Alpha  occ. eigenvalues --   -1.00613  -1.00184  -0.96356  -0.95736  -0.94386
 Alpha  occ. eigenvalues --   -0.91609  -0.91580  -0.90720  -0.84961  -0.84871
 Alpha  occ. eigenvalues --   -0.83696  -0.83686  -0.83181  -0.83080  -0.82374
 Alpha  occ. eigenvalues --   -0.82240  -0.77518  -0.77426  -0.76809  -0.76685
 Alpha  occ. eigenvalues --   -0.73964  -0.73908  -0.70399  -0.70313  -0.70132
 Alpha  occ. eigenvalues --   -0.70020  -0.69881  -0.69768  -0.69392  -0.69240
 Alpha  occ. eigenvalues --   -0.68893  -0.68783  -0.65950  -0.65733  -0.65595
 Alpha  occ. eigenvalues --   -0.65565  -0.62999  -0.62931  -0.61908  -0.61814
 Alpha  occ. eigenvalues --   -0.57460  -0.57149  -0.56906  -0.56779  -0.55967
 Alpha  occ. eigenvalues --   -0.55709  -0.53320  -0.53208  -0.52927  -0.52798
 Alpha  occ. eigenvalues --   -0.51886  -0.51668  -0.51024  -0.50598  -0.50094
 Alpha  occ. eigenvalues --   -0.49587  -0.48583  -0.48482  -0.47555  -0.47452
 Alpha  occ. eigenvalues --   -0.46904  -0.46536  -0.46404  -0.46318  -0.46061
 Alpha  occ. eigenvalues --   -0.45928  -0.45555  -0.45528  -0.45141  -0.45034
 Alpha  occ. eigenvalues --   -0.44888  -0.44790  -0.44547  -0.44448  -0.44330
 Alpha  occ. eigenvalues --   -0.44220  -0.43929  -0.43785  -0.43641  -0.43563
 Alpha  occ. eigenvalues --   -0.43112  -0.43041  -0.42989  -0.42943  -0.42093
 Alpha  occ. eigenvalues --   -0.41910  -0.41761  -0.41638  -0.41539  -0.41171
 Alpha  occ. eigenvalues --   -0.40804  -0.40637  -0.40492  -0.40151  -0.39819
 Alpha  occ. eigenvalues --   -0.39744  -0.39584  -0.39256  -0.38683  -0.38564
 Alpha  occ. eigenvalues --   -0.38320  -0.38256  -0.37924  -0.37905  -0.37734
 Alpha  occ. eigenvalues --   -0.37634  -0.37471  -0.37326  -0.36757  -0.36664
 Alpha  occ. eigenvalues --   -0.36520  -0.36502  -0.35971  -0.35877  -0.35813
 Alpha  occ. eigenvalues --   -0.35653  -0.35528  -0.35244  -0.34914  -0.34864
 Alpha  occ. eigenvalues --   -0.34685  -0.34450  -0.34257  -0.33984  -0.33842
 Alpha  occ. eigenvalues --   -0.33508  -0.33326  -0.33033  -0.32745  -0.32653
 Alpha  occ. eigenvalues --   -0.32509  -0.32499  -0.31843  -0.31719  -0.31385
 Alpha  occ. eigenvalues --   -0.30956  -0.30431  -0.30156  -0.29973  -0.29598
 Alpha  occ. eigenvalues --   -0.28765  -0.28585  -0.27874  -0.27739  -0.26958
 Alpha  occ. eigenvalues --   -0.26856  -0.26611  -0.25999  -0.25457  -0.25124
 Alpha  occ. eigenvalues --   -0.23241  -0.22662  -0.21448  -0.20618  -0.19671
 Alpha  occ. eigenvalues --   -0.19390
 Alpha virt. eigenvalues --   -0.04265  -0.04126  -0.02219  -0.02023  -0.01766
 Alpha virt. eigenvalues --   -0.00267   0.00891   0.01311   0.02047   0.02159
 Alpha virt. eigenvalues --    0.02490   0.02803   0.02899   0.02954   0.03654

 Mulliken charges:
               1
     1  C   -0.366775
     2  H    0.131596
     3  O   -0.772885
     4  H    0.127065
     5  O   -0.822856
     6  C   -0.107174
     7  H    0.107440
     8  H    0.104435
     9  C   -0.396702
    10  H    0.124452
    11  H    0.126604
    12  H    0.110353
    13  C   -0.352051
    14  H    0.109428
    15  H    0.185976
    16  Ru   1.048498
    17  H    0.151346
    18  N   -0.186645
    19  C   -0.148581
    20  C    0.026853
    21  H    0.109309
    22  H    0.121401
    23  C   -0.409921
    24  C    0.003396
    25  P    0.057992
    26  H    0.120005
    27  C   -0.333837
    28  H    0.125105
    29  H    0.110056
    30  H    0.108789
    31  C   -0.119373
    32  H    0.108105
    33  C   -0.188079
    34  C   -0.335828
    35  H    0.142672
    36  C   -0.374551
    37  H    0.124520
    38  H    0.111544
    39  C    0.109338
    40  N   -0.156517
    41  C   -0.330375
    42  H    0.125514
    43  H    0.129833
    44  H    0.113757
    45  H    0.109565
    46  C   -0.239173
    47  H    0.114854
    48  H    0.112946
    49  C    0.045356
    50  C   -0.150742
    51  H    0.119342
    52  H    0.161452
    53  H    0.171971
    54  H    0.143333
    55  C   -0.123852
    56  C   -0.134607
    57  H    0.164016
    58  H    0.163293
    59  H    0.301931
    60  O   -0.298344
    61  C   -0.375601
    62  H    0.132721
    63  O   -0.765383
    64  H    0.128694
    65  O   -0.822956
    66  H    0.298099
    67  C   -0.148171
    68  H    0.102753
    69  C   -0.393267
    70  H    0.127121
    71  H    0.122222
    72  C   -0.343592
    73  H    0.108753
    74  H    0.182400
    75  Ru   1.021446
    76  H    0.155393
    77  N   -0.205225
    78  C   -0.145483
    79  C    0.026774
    80  H    0.105399
    81  H    0.120623
    82  C   -0.412836
    83  C    0.009086
    84  P    0.070113
    85  H    0.127424
    86  C   -0.336935
    87  H    0.129078
    88  H    0.112671
    89  H    0.108208
    90  C   -0.125287
    91  H    0.106860
    92  C   -0.203594
    93  C   -0.336848
    94  H    0.143167
    95  C   -0.379189
    96  H    0.123429
    97  H    0.110807
    98  C    0.114245
    99  N   -0.142124
   100  C   -0.330859
   101  H    0.122967
   102  H    0.142955
   103  H    0.113000
   104  H    0.111637
   105  C   -0.240435
   106  H    0.117501
   107  H    0.112134
   108  C    0.026904
   109  C   -0.150685
   110  H    0.118879
   111  H    0.162948
   112  H    0.172237
   113  H    0.140581
   114  C   -0.121289
   115  C   -0.137277
   116  H    0.164312
   117  H    0.163312
   118  H    0.302937
   119  O   -0.303565
   120  H    0.127534
   121  H    0.129836
   122  H    0.118050
   123  H    0.137655
   124  H    0.128462
   125  H    0.116911
   126  H    0.147589
   127  H    0.116207
   128  H    0.303991
 Sum of Mulliken charges =  -0.00000

 Dipole moment (field-independent basis, Debye):
    X=             -0.5114    Y=              9.4421    Z=              1.8002  Tot=              9.6258
 Quadrupole moment (field-independent basis, Debye-Ang):
   XX=           -260.0979   YY=           -350.5147   ZZ=           -364.3845
   XY=             -1.8055   XZ=             39.5200   YZ=              4.4613

 Normal termination of Gaussian 16 at Fri Feb 28 14:26:56 2020.
