 Gaussian 16, Revision A.03,
 Gaussian 16:  ES64L-G16RevA.03 25-Dec-2016

 ----------------------------------------------------------------------
 # genecp pbe1pbe EmpiricalDispersion=GD3BJ scrf=(SMD,solvent=water) ge
 om=allcheck
 ----------------------------------------------------------------------

 Structure from the checkpoint file:  "/scratch/js1212.771178/GAlt-Mono-T-0-GP-SMD.chk"
 -------------------
 Title Card Required
 -------------------
 Charge =  0 Multiplicity = 3

                         Standard orientation:
 ---------------------------------------------------------------------
 Center     Atomic      Atomic             Coordinates (Angstroms)
 Number     Number       Type             X           Y           Z
 ---------------------------------------------------------------------
      1          1           0       -3.371701   -3.454093    1.935211
      2          6           0       -3.146172   -2.831664    1.056726
      3          1           0       -3.896272   -3.068517    0.285997
      4          1           0       -2.146781   -3.113637    0.689077
      5          1           0        1.432828   -0.738955    2.714096
      6          8           0        0.005037   -2.505450    0.263006
      7          1           0        4.240109   -1.780823    0.625149
      8          8           0       -0.446426   -0.219436    1.938659
      9          6           0       -3.157230   -1.376841    1.473820
     10          1           0        2.862299   -0.052987    3.560564
     11          1           0       -4.155758   -1.077341    1.848825
     12          6           0        2.492770   -0.457556    2.603006
     13          1           0        2.729154   -2.700381    0.343317
     14          1           0        3.092254   -1.345012    2.362680
     15          1           0       -2.418703   -1.213613    2.275970
     16          6           0        3.557469   -2.164043   -0.145119
     17          1           0        4.119073   -2.889884   -0.755794
     18          1           0       -2.271150    0.859624    1.906648
     19         44           0       -0.354623   -0.697124    0.137906
     20          1           0        0.715693    1.515875    2.123373
     21          7           0       -2.729052   -0.454000    0.403802
     22          6           0       -2.767686    0.921469    0.919738
     23          6           0        2.607440    0.641261    1.540983
     24          1           0        2.149543    2.167941    2.978091
     25          1           0        4.795888    0.249304   -0.925104
     26          6           0        1.762873    1.836649    1.999801
     27          6           0        3.024337   -1.060426   -1.062081
     28         15           0        1.820041    0.002577   -0.059199
     29          1           0       -3.796536    1.302649    1.034684
     30          6           0        4.166566   -0.245894   -1.673149
     31          1           0       -3.235972   -1.567956   -1.282320
     32          1           0       -5.445233   -1.228849   -0.107925
     33          1           0        4.812501   -0.927682   -2.250883
     34          6           0       -3.489270   -0.590152   -0.849883
     35          1           0        4.385082    1.549492    2.320687
     36          6           0       -0.627070   -0.882147   -1.782088
     37          6           0        4.057392    1.091181    1.372839
     38          1           0        1.453590   -2.382137   -1.794197
     39          6           0        2.246431   -1.734253   -2.193884
     40          1           0        4.741741    0.257740    1.162605
     41          1           0        2.950672   -2.354395   -2.772787
     42          6           0       -1.922425    1.874763    0.128778
     43          7           0       -0.719466    1.397228   -0.228661
     44          6           0       -5.000797   -0.448089   -0.742241
     45          1           0        1.836169    2.695503    1.314092
     46          1           0       -3.094501    0.165479   -1.546750
     47          1           0        3.796833    0.517190   -2.375225
     48          1           0       -5.306800    0.530178   -0.341609
     49          6           0        1.538526    1.528245   -1.108100
     50          1           0       -5.444354   -0.543235   -1.744769
     51          1           0        4.178549    1.853007    0.586303
     52          6           0        0.219609    2.179562   -0.783739
     53          6           0       -2.255594    3.202576   -0.121037
     54          1           0        1.801261   -1.010061   -2.892050
     55          1           0       -3.239944    3.579877    0.158423
     56          1           0        1.513303    1.166378   -2.150381
     57          1           0        2.361287    2.255498   -1.037142
     58          6           0       -0.047891    3.525243   -1.030639
     59          6           0       -1.303542    4.032767   -0.707861
     60          1           0        0.719580    4.161726   -1.472369
     61          1           0       -1.537246    5.080259   -0.907216
     62          8           0       -0.885922   -0.860347   -2.907961
 ---------------------------------------------------------------------

 SCF Done:  E(UPBE1PBE) =  -1553.68456746     A.U. after   28 cycles

 The electronic state is 3-A.
 Alpha  occ. eigenvalues --  -77.26968 -19.28174 -19.18207 -19.12318 -14.43043
 Alpha  occ. eigenvalues --  -14.42064 -10.33696 -10.29454 -10.28716 -10.25812
 Alpha  occ. eigenvalues --  -10.25421 -10.25269 -10.25234 -10.24670 -10.24539
 Alpha  occ. eigenvalues --  -10.24305 -10.24288 -10.23951 -10.21115 -10.21114
 Alpha  occ. eigenvalues --  -10.21009 -10.20914 -10.20811 -10.20298 -10.20061
 Alpha  occ. eigenvalues --  -10.19943  -6.64410  -4.78063  -4.77956  -4.77831
 Alpha  occ. eigenvalues --   -3.10716  -1.94913  -1.93598  -1.92808  -1.15602
 Alpha  occ. eigenvalues --   -1.01003  -0.96663  -0.91433  -0.86568  -0.85516
 Alpha  occ. eigenvalues --   -0.83946  -0.83607  -0.82794  -0.77802  -0.77120
 Alpha  occ. eigenvalues --   -0.74430  -0.70810  -0.70458  -0.70235  -0.69669
 Alpha  occ. eigenvalues --   -0.69196  -0.66398  -0.66090  -0.63442  -0.62580
 Alpha  occ. eigenvalues --   -0.58963  -0.57480  -0.56396  -0.53677  -0.53305
 Alpha  occ. eigenvalues --   -0.52083  -0.51079  -0.50388  -0.49149  -0.48098
 Alpha  occ. eigenvalues --   -0.47654  -0.47392  -0.46622  -0.46533  -0.45866
 Alpha  occ. eigenvalues --   -0.45657  -0.45436  -0.44537  -0.44480  -0.44104
 Alpha  occ. eigenvalues --   -0.43497  -0.43227  -0.42048  -0.41792  -0.41111
 Alpha  occ. eigenvalues --   -0.40490  -0.39620  -0.39335  -0.38888  -0.38782
 Alpha  occ. eigenvalues --   -0.38636  -0.38310  -0.38222  -0.37563  -0.37424
 Alpha  occ. eigenvalues --   -0.36877  -0.36382  -0.36132  -0.35798  -0.35484
 Alpha  occ. eigenvalues --   -0.35085  -0.34460  -0.34375  -0.33917  -0.33681
 Alpha  occ. eigenvalues --   -0.33187  -0.32629  -0.32140  -0.31945  -0.31073
 Alpha  occ. eigenvalues --   -0.29684  -0.28770  -0.28207  -0.27224  -0.25995
 Alpha  occ. eigenvalues --   -0.22058  -0.19854  -0.19570
 Alpha virt. eigenvalues --   -0.04447  -0.02794  -0.02404  -0.00623   0.00460
 Alpha virt. eigenvalues --    0.01015   0.02150   0.03052   0.03277   0.05050
 Alpha virt. eigenvalues --    0.05930   0.07196   0.07501   0.07573   0.07873

  Beta  occ. eigenvalues --  -77.26972 -19.28119 -19.16108 -19.11398 -14.43016
  Beta  occ. eigenvalues --  -14.42004 -10.33662 -10.29452 -10.28711 -10.25798
  Beta  occ. eigenvalues --  -10.25418 -10.25275 -10.25228 -10.24671 -10.24541
  Beta  occ. eigenvalues --  -10.24308 -10.24287 -10.23952 -10.21114 -10.21111
  Beta  occ. eigenvalues --  -10.21009 -10.20919 -10.20808 -10.20290 -10.20062
  Beta  occ. eigenvalues --  -10.19930  -6.64414  -4.78063  -4.77962  -4.77841
  Beta  occ. eigenvalues --   -3.07212  -1.90417  -1.89708  -1.89355  -1.15503
  Beta  occ. eigenvalues --   -1.00946  -0.96576  -0.86025  -0.85453  -0.84208
  Beta  occ. eigenvalues --   -0.83847  -0.83514  -0.82622  -0.77774  -0.77100
  Beta  occ. eigenvalues --   -0.74421  -0.70798  -0.70441  -0.70225  -0.69657
  Beta  occ. eigenvalues --   -0.69182  -0.66366  -0.66063  -0.63399  -0.62550
  Beta  occ. eigenvalues --   -0.58739  -0.57433  -0.56385  -0.53634  -0.53248
  Beta  occ. eigenvalues --   -0.51994  -0.50990  -0.50273  -0.49062  -0.47976
  Beta  occ. eigenvalues --   -0.47407  -0.46947  -0.46497  -0.46357  -0.45828
  Beta  occ. eigenvalues --   -0.45556  -0.45270  -0.44431  -0.44381  -0.43982
  Beta  occ. eigenvalues --   -0.43416  -0.43099  -0.41999  -0.41720  -0.40949
  Beta  occ. eigenvalues --   -0.40429  -0.39521  -0.39195  -0.38760  -0.38471
  Beta  occ. eigenvalues --   -0.38249  -0.38233  -0.37487  -0.37047  -0.36661
  Beta  occ. eigenvalues --   -0.36286  -0.36102  -0.35572  -0.35140  -0.34506
  Beta  occ. eigenvalues --   -0.34407  -0.33978  -0.33595  -0.33256  -0.33102
  Beta  occ. eigenvalues --   -0.32570  -0.31019  -0.30829  -0.30184  -0.28926
  Beta  occ. eigenvalues --   -0.28309  -0.27705  -0.27158  -0.26684  -0.21091
  Beta  occ. eigenvalues --   -0.18427
  Beta virt. eigenvalues --   -0.08247  -0.07472  -0.03982  -0.02446  -0.01572
  Beta virt. eigenvalues --    0.00645   0.01162   0.01511   0.02536   0.03209
  Beta virt. eigenvalues --    0.03445   0.05519   0.06470   0.07289   0.07533

 Mulliken charges and spin densities:
               1          2
     1  H    0.116192  -0.000388
     2  C   -0.348662   0.006059
     3  H    0.109097   0.000395
     4  H    0.129938  -0.001658
     5  H    0.148430  -0.002385
     6  O   -0.635306   0.733450
     7  H    0.124877  -0.000039
     8  O   -0.793575   0.336727
     9  C   -0.114332  -0.002881
    10  H    0.105171  -0.000179
    11  H    0.115496   0.006018
    12  C   -0.371564   0.007288
    13  H    0.128241   0.001014
    14  H    0.117816   0.000011
    15  H    0.142035   0.000539
    16  C   -0.340670   0.000697
    17  H    0.111401   0.000881
    18  H    0.178824  -0.001170
    19  Ru   0.843796   0.845804
    20  H    0.154155  -0.002125
    21  N   -0.199576   0.022983
    22  C   -0.108084  -0.000356
    23  C    0.029999  -0.001501
    24  H    0.108388  -0.000121
    25  H    0.125249  -0.000108
    26  C   -0.377812   0.000531
    27  C    0.001001   0.005833
    28  P    0.169162  -0.005372
    29  H    0.126618  -0.000926
    30  C   -0.322852   0.001097
    31  H    0.130010   0.000440
    32  H    0.112008  -0.000085
    33  H    0.113039   0.000656
    34  C   -0.106586  -0.000702
    35  H    0.109696  -0.000290
    36  C   -0.054898   0.017416
    37  C   -0.329776  -0.000039
    38  H    0.138684   0.001081
    39  C   -0.352724   0.000385
    40  H    0.120074  -0.000004
    41  H    0.114585   0.000163
    42  C    0.121627   0.006955
    43  N   -0.172972   0.004515
    44  C   -0.324534   0.001613
    45  H    0.112060  -0.000132
    46  H    0.133843   0.000564
    47  H    0.116351  -0.000127
    48  H    0.111120  -0.000031
    49  C   -0.220067   0.000515
    50  H    0.116128   0.000043
    51  H    0.118005   0.000067
    52  C    0.082340  -0.002322
    53  C   -0.157427   0.000664
    54  H    0.120961   0.000127
    55  H    0.162616   0.000330
    56  H    0.170313   0.000135
    57  H    0.154345  -0.000873
    58  C   -0.140660  -0.001461
    59  C   -0.118066   0.001477
    60  H    0.165536   0.000019
    61  H    0.164897  -0.000067
    62  O   -0.183978   0.018848
 Sum of Mulliken charges =  -0.00000   2.00000

 Dipole moment (field-independent basis, Debye):
    X=              0.6571    Y=             12.1290    Z=             -7.2317  Tot=             14.1365
 Quadrupole moment (field-independent basis, Debye-Ang):
   XX=           -143.8558   YY=           -180.8094   ZZ=           -200.3298
   XY=             -3.2384   XZ=             -4.9549   YZ=             -1.4336

 Normal termination of Gaussian 16 at Fri Aug 28 20:11:01 2020.
