 Gaussian 16, Revision A.03,
 Gaussian 16:  ES64L-G16RevA.03 25-Dec-2016

 ----------------------------------------------------------------------
 # genecp pbe1pbe EmpiricalDispersion=GD3BJ scrf=(SMD,solvent=water) ge
 om=allcheck
 ----------------------------------------------------------------------

 Structure from the checkpoint file:  "/scratch/js1212.757588/G-Cis-R2-R2-Down-T-GP-SMD.chk"
 -------------------
 Title Card Required
 -------------------
 Charge =  0 Multiplicity = 3

                         Standard orientation:
 ---------------------------------------------------------------------
 Center     Atomic      Atomic             Coordinates (Angstroms)
 Number     Number       Type             X           Y           Z
 ---------------------------------------------------------------------
      1          1           0        0.840520   -2.253105   -2.784171
      2          6           0       -0.230158   -2.037442   -2.886052
      3          1           0       -0.571017   -2.405574   -3.866215
      4          1           0       -0.341574   -0.944512   -2.837069
      5          1           0       -1.641705    1.800462    2.894724
      6          8           0       -0.722944    0.624911   -1.069750
      7          1           0       -1.479592    3.473847    1.349653
      8          8           0       -1.681426   -1.008340    0.891924
      9          1           0       -0.595352    0.160019    1.526897
     10          6           0       -0.952912   -2.679940   -1.722739
     11          1           0       -2.721201    1.840100    4.311669
     12          1           0       -0.920443   -3.784590   -1.801169
     13          6           0       -2.646058    2.085857    3.238800
     14          1           0       -1.256538    2.941281   -0.325333
     15          1           0       -2.759354    3.174914    3.151148
     16          1           0       -0.445563   -2.387912   -0.792593
     17          6           0       -1.834795    3.616733    0.322705
     18          1           0       -1.625744    4.657966    0.024698
     19          1           0       -2.398694   -2.960961    0.341732
     20         44           0       -2.595661   -0.160915   -0.647757
     21          1           0       -2.652696   -0.583335    2.493326
     22          7           0       -2.363148   -2.243423   -1.597840
     23          6           0       -3.036594   -3.039160   -0.553257
     24          6           0       -3.748979    1.319463    2.504349
     25          1           0       -3.648124   -0.268726    3.946686
     26          1           0       -3.946248    4.289287    2.052227
     27          6           0       -3.607731   -0.166512    2.849355
     28          6           0       -3.335112    3.346998    0.156129
     29         15           0       -3.595934    1.521574    0.597008
     30          1           0       -3.142191   -4.098161   -0.841261
     31          6           0       -4.180564    4.316535    0.981191
     32          1           0       -2.633612   -1.648263   -3.578984
     33          1           0       -2.178938   -4.146393   -3.716820
     34          1           0       -3.980340    5.342251    0.629076
     35          6           0       -3.102421   -2.348180   -2.877649
     36          1           0       -5.107769    1.731920    4.114319
     37          6           0       -3.151991    0.563678   -2.272228
     38          6           0       -5.119370    1.784067    3.013037
     39          1           0       -3.028382    2.969551   -1.976833
     40          6           0       -3.676175    3.559690   -1.319789
     41          1           0       -5.365739    2.817548    2.738220
     42          1           0       -3.503982    4.622204   -1.557985
     43          6           0       -4.367965   -2.437694   -0.210140
     44          7           0       -4.381133   -1.091995   -0.213537
     45          6           0       -3.175257   -3.732976   -3.503393
     46          1           0       -4.425268   -0.772763    2.433539
     47          1           0       -4.118791   -1.968135   -2.696232
     48          1           0       -5.259522    4.134192    0.854399
     49          1           0       -3.720431   -4.456658   -2.879204
     50          6           0       -5.345681    1.093197    0.046163
     51          1           0       -3.714323   -3.660157   -4.459844
     52          1           0       -5.933311    1.126633    2.673275
     53          6           0       -5.494495   -0.396101    0.100035
     54          6           0       -5.509066   -3.156509    0.127481
     55          1           0       -4.728466    3.342796   -1.559118
     56          1           0       -5.485283   -4.246740    0.124270
     57          1           0       -5.399197    1.410819   -1.008037
     58          1           0       -6.146543    1.604813    0.594645
     59          6           0       -6.662671   -1.067449    0.453768
     60          6           0       -6.666379   -2.459862    0.469732
     61          1           0       -7.556495   -0.499087    0.712483
     62          1           0       -7.572984   -3.002060    0.744047
     63          8           0       -3.404041    0.961021   -3.331813
     64          6           0        0.899036   -3.731710    2.714489
     65          1           0        1.013586    1.041583   -2.295062
     66          8           0       -0.127983    0.986511    1.822672
     67          1           0        1.241315    3.201249   -0.856209
     68          8           0        1.518521   -1.136903   -0.494076
     69          1           0        0.823356    0.812782    1.654215
     70          6           0        1.176909   -2.345102    2.156210
     71          1           0        1.492109    1.027322   -4.010854
     72          6           0        1.756866    1.421853   -3.014456
     73          1           0        1.767705    3.005753    0.820899
     74          1           0        1.648987    2.515906   -3.064146
     75          6           0        1.976386    3.544749   -0.113824
     76          1           0        1.818024    4.623826    0.053638
     77          1           0        2.530222   -3.004408    0.158900
     78         44           0        2.766478   -0.041393    0.737671
     79          1           0        2.675610   -1.031552   -2.079109
     80          7           0        2.600899   -1.987008    1.958358
     81          6           0        3.232817   -2.924162    1.004029
     82          6           0        3.190794    1.001635   -2.683684
     83          1           0        2.996871   -0.799612   -3.838754
     84          1           0        2.989248    4.019117   -2.619036
     85          6           0        3.315651   -0.521897   -2.819195
     86          6           0        3.417290    3.308497   -0.581732
     87         15           0        3.542536    1.421377   -0.853564
     88          1           0        3.388582   -3.919592    1.455650
     89          6           0        3.705467    4.179779   -1.803251
     90          1           0        4.355622   -1.540723    2.982144
     91          1           0        2.384355   -0.232368    4.033436
     92          1           0        3.623571    5.237651   -1.500590
     93          6           0        3.375969   -1.984337    3.216833
     94          1           0        3.943597    1.200830   -4.679991
     95          6           0        3.494176    0.946255    2.090611
     96          6           0        4.167311    1.624280   -3.686102
     97          1           0        4.293312    3.151737    1.438317
     98          6           0        4.386207    3.742778    0.520397
     99          1           0        4.084752    2.712475   -3.771938
    100          1           0        4.165011    4.791332    0.781934
    101          6           0        4.531632   -2.401742    0.449828
    102          7           0        4.510009   -1.098427    0.143389
    103          6           0        2.721022   -1.226939    4.354163
    104          1           0        4.359113   -0.855576   -2.704327
    105          1           0        3.565496   -3.030247    3.530976
    106          1           0        4.723494    4.029299   -2.191440
    107          1           0        1.858386   -1.768435    4.768531
    108          6           0        5.374138    0.991325   -0.690997
    109          1           0        3.451661   -1.089274    5.164549
    110          1           0        5.215016    1.369754   -3.464524
    111          6           0        5.548507   -0.480938   -0.441955
    112          6           0        5.658441   -3.172083    0.183899
    113          1           0        5.432822    3.709792    0.179582
    114          1           0        5.676003   -4.231570    0.443579
    115          1           0        5.701470    1.523475    0.217377
    116          1           0        6.006222    1.335394   -1.522438
    117          6           0        6.698779   -1.205954   -0.753863
    118          6           0        6.750751   -2.560543   -0.432417
    119          1           0        7.542277   -0.711781   -1.238004
    120          1           0        7.646385   -3.141539   -0.660614
    121          1           0        0.785272   -0.560252   -0.789926
    122          8           0        3.924814    1.549179    3.002676
    123          1           0       -0.189494   -3.846409    2.830964
    124          1           0        1.354562   -3.901281    3.703340
    125          1           0        1.239278   -4.534273    2.041754
    126          1           0        0.711876   -2.202400    1.171256
    127          1           0        0.743999   -1.577382    2.809616
    128          1           0       -0.434344    0.987328   -0.216313
 ---------------------------------------------------------------------

 SCF Done:  E(UPBE1PBE) =  -3109.93660646     A.U. after   32 cycles

 Alpha virt. eigenvalues --    2.88783   2.88849   2.89203   2.89456   2.89660
 Alpha virt. eigenvalues --    2.89970   2.90109   2.90467   2.90838   2.90909
 Alpha virt. eigenvalues --    2.91479   2.91789   2.91843   2.92543   2.92697

  Beta  occ. eigenvalues --  -77.26025 -77.24725 -19.26206 -19.22589 -19.17525
  Beta  occ. eigenvalues --  -19.15863 -19.13490 -19.11686 -14.43541 -14.42918
  Beta  occ. eigenvalues --  -14.41858 -14.41520 -10.32061 -10.29085 -10.29058
  Beta  occ. eigenvalues --  -10.28611 -10.28238 -10.27767 -10.25412 -10.25297
  Beta  occ. eigenvalues --  -10.25270 -10.25264 -10.25088 -10.24699 -10.24667
  Beta  occ. eigenvalues --  -10.24580 -10.24383 -10.24281 -10.24277 -10.24185
  Beta  occ. eigenvalues --  -10.24070 -10.23869 -10.23711 -10.23689 -10.23178
  Beta  occ. eigenvalues --  -10.23086 -10.20950 -10.20858 -10.20837 -10.20799
  Beta  occ. eigenvalues --  -10.20583 -10.20546 -10.20495 -10.20444 -10.20425
  Beta  occ. eigenvalues --  -10.20360 -10.20273 -10.20265 -10.19988 -10.19975
  Beta  occ. eigenvalues --  -10.19746 -10.19077  -6.63416  -6.62062  -4.77092
  Beta  occ. eigenvalues --   -4.76992  -4.76783  -4.75738  -4.75665  -4.75413
  Beta  occ. eigenvalues --   -3.05106  -3.00384  -1.88937  -1.87712  -1.87411
  Beta  occ. eigenvalues --   -1.84830  -1.83694  -1.81250  -1.13850  -1.10150
  Beta  occ. eigenvalues --   -1.01002  -1.00254  -0.99762  -0.96758  -0.95974
  Beta  occ. eigenvalues --   -0.92833  -0.90719  -0.85377  -0.85010  -0.84425
  Beta  occ. eigenvalues --   -0.83907  -0.83459  -0.83096  -0.82732  -0.82586
  Beta  occ. eigenvalues --   -0.81987  -0.77738  -0.77562  -0.77097  -0.76299
  Beta  occ. eigenvalues --   -0.74252  -0.73511  -0.70571  -0.70427  -0.70152
  Beta  occ. eigenvalues --   -0.70098  -0.69964  -0.69670  -0.69510  -0.69202
  Beta  occ. eigenvalues --   -0.69148  -0.68569  -0.66220  -0.65897  -0.65147
  Beta  occ. eigenvalues --   -0.65116  -0.63361  -0.63323  -0.62239  -0.61440
  Beta  occ. eigenvalues --   -0.57813  -0.57392  -0.57129  -0.56156  -0.55567
  Beta  occ. eigenvalues --   -0.55319  -0.53578  -0.53205  -0.52999  -0.52675
  Beta  occ. eigenvalues --   -0.52159  -0.51645  -0.51352  -0.50930  -0.50359
  Beta  occ. eigenvalues --   -0.49854  -0.49149  -0.48782  -0.48364  -0.47779
  Beta  occ. eigenvalues --   -0.47472  -0.46803  -0.46615  -0.46456  -0.46275
  Beta  occ. eigenvalues --   -0.45778  -0.45588  -0.45296  -0.45268  -0.45100
  Beta  occ. eigenvalues --   -0.44991  -0.44712  -0.44650  -0.44457  -0.44201
  Beta  occ. eigenvalues --   -0.43957  -0.43822  -0.43694  -0.43644  -0.43579
  Beta  occ. eigenvalues --   -0.43050  -0.42855  -0.42374  -0.42289  -0.42134
  Beta  occ. eigenvalues --   -0.42098  -0.41865  -0.41761  -0.41540  -0.41116
  Beta  occ. eigenvalues --   -0.40939  -0.40862  -0.40403  -0.40004  -0.39741
  Beta  occ. eigenvalues --   -0.39545  -0.39463  -0.39244  -0.38875  -0.38427
  Beta  occ. eigenvalues --   -0.38369  -0.38243  -0.38042  -0.37874  -0.37827
  Beta  occ. eigenvalues --   -0.37725  -0.37511  -0.37224  -0.37092  -0.36776
  Beta  occ. eigenvalues --   -0.36427  -0.36311  -0.36219  -0.35970  -0.35878
  Beta  occ. eigenvalues --   -0.35617  -0.35492  -0.35204  -0.34928  -0.34912
  Beta  occ. eigenvalues --   -0.34672  -0.34458  -0.34147  -0.34011  -0.33615
  Beta  occ. eigenvalues --   -0.33484  -0.33294  -0.33143  -0.32986  -0.32856
  Beta  occ. eigenvalues --   -0.32438  -0.32399  -0.31892  -0.31839  -0.31327
  Beta  occ. eigenvalues --   -0.31159  -0.30593  -0.30401  -0.29972  -0.29518
  Beta  occ. eigenvalues --   -0.29252  -0.28619  -0.28074  -0.27304  -0.27044
  Beta  occ. eigenvalues --   -0.26932  -0.26531  -0.26292  -0.25608  -0.24546
  Beta  occ. eigenvalues --   -0.21246  -0.20708  -0.20244  -0.19742  -0.18546
  Beta virt. eigenvalues --   -0.09492  -0.04383  -0.03989  -0.02328  -0.01789
  Beta virt. eigenvalues --   -0.01605  -0.00504   0.01031   0.01277   0.01662
  Beta virt. eigenvalues --    0.01825   0.02349   0.02448   0.02995   0.03569

 Mulliken charges and spin densities:
               1          2
     1  H    0.131908   0.000124
     2  C   -0.368392   0.000431
     3  H    0.116736   0.000222
     4  H    0.134215   0.000359
     5  H    0.139083   0.000813
     6  O   -0.749092   0.001954
     7  H    0.128718  -0.000087
     8  O   -0.634368   0.809068
     9  H    0.331007  -0.008917
    10  C   -0.122603   0.001546
    11  H    0.099269   0.000309
    12  H    0.121851   0.000052
    13  C   -0.387596   0.001556
    14  H    0.119166  -0.000190
    15  H    0.117310  -0.000068
    16  H    0.140758   0.003875
    17  C   -0.348922   0.000248
    18  H    0.111337  -0.000012
    19  H    0.177303  -0.002546
    20  Ru   0.927561   0.102140
    21  H    0.145407  -0.014680
    22  N   -0.215449   0.015758
    23  C   -0.126959  -0.001005
    24  C    0.020632   0.000185
    25  H    0.114151   0.002876
    26  H    0.122026   0.000025
    27  C   -0.374522   0.042663
    28  C    0.013223  -0.000244
    29  P    0.078956   0.005993
    30  H    0.129693  -0.000110
    31  C   -0.333668  -0.000141
    32  H    0.131183   0.000138
    33  H    0.113472  -0.000034
    34  H    0.109359   0.000051
    35  C   -0.125763  -0.001036
    36  H    0.108673   0.000380
    37  C   -0.140366   0.014247
    38  C   -0.327767   0.002675
    39  H    0.131623   0.000180
    40  C   -0.368412  -0.000363
    41  H    0.126347   0.000370
    42  H    0.114811  -0.000034
    43  C    0.100724   0.000653
    44  N   -0.148473   0.001457
    45  C   -0.326607   0.000310
    46  H    0.125961  -0.001032
    47  H    0.143214   0.000242
    48  H    0.116044   0.000007
    49  H    0.111500  -0.000028
    50  C   -0.245372   0.002696
    51  H    0.118569   0.000134
    52  H    0.112860  -0.000062
    53  C    0.034563  -0.000884
    54  C   -0.136851   0.001263
    55  H    0.126871   0.000068
    56  H    0.164345   0.000217
    57  H    0.177417  -0.001015
    58  H    0.142388   0.000198
    59  C   -0.101016   0.000881
    60  C   -0.140985  -0.000492
    61  H    0.167113  -0.000050
    62  H    0.164526   0.000014
    63  O   -0.251220   0.021776
    64  C   -0.337042   0.000978
    65  H    0.120638  -0.000774
    66  O   -0.592390   0.045348
    67  H    0.126206  -0.000519
    68  O   -0.812153   0.006584
    69  H    0.291508   0.014647
    70  C   -0.117317  -0.001745
    71  H    0.103308   0.000259
    72  C   -0.376429   0.000368
    73  H    0.129957  -0.002787
    74  H    0.125330   0.000012
    75  C   -0.340853   0.002072
    76  H    0.110611   0.001699
    77  H    0.169114  -0.000242
    78  Ru   0.661693   0.921763
    79  H    0.145241   0.000438
    80  N   -0.205792  -0.005338
    81  C   -0.119359   0.003238
    82  C    0.029230  -0.003411
    83  H    0.102570  -0.000129
    84  H    0.119080   0.000055
    85  C   -0.410940   0.000803
    86  C    0.007470  -0.001614
    87  P    0.052221  -0.017351
    88  H    0.123278  -0.000665
    89  C   -0.337425  -0.000511
    90  H    0.146071  -0.000090
    91  H    0.127828  -0.001949
    92  H    0.106864  -0.000006
    93  C   -0.117047  -0.000054
    94  H    0.106250  -0.000418
    95  C   -0.268361  -0.039128
    96  C   -0.340296  -0.000391
    97  H    0.144517  -0.000483
    98  C   -0.374313   0.000144
    99  H    0.118491   0.000050
   100  H    0.107143  -0.000081
   101  C    0.103667  -0.000065
   102  N   -0.156484   0.071027
   103  C   -0.346271   0.001034
   104  H    0.119587  -0.000020
   105  H    0.116619  -0.000393
   106  H    0.111508   0.000077
   107  H    0.117667   0.000072
   108  C   -0.236718   0.000547
   109  H    0.122911   0.000003
   110  H    0.113445   0.000025
   111  C    0.031572   0.000136
   112  C   -0.164041   0.004302
   113  H    0.112681  -0.000047
   114  H    0.160372   0.001781
   115  H    0.161983  -0.000323
   116  H    0.141330  -0.001033
   117  C   -0.135936   0.003248
   118  C   -0.141891   0.000057
   119  H    0.160994   0.001498
   120  H    0.161237  -0.000161
   121  H    0.287455  -0.003954
   122  O   -0.345577  -0.000539
   123  H    0.122470  -0.000109
   124  H    0.110529  -0.000022
   125  H    0.111890   0.000267
   126  H    0.129972  -0.001136
   127  H    0.118107  -0.000487
   128  H    0.298556  -0.001683
 Sum of Mulliken charges =  -0.00000   2.00000

 Dipole moment (field-independent basis, Debye):
    X=             -7.6990    Y=             -7.3579    Z=             -2.0272  Tot=             10.8409
 Quadrupole moment (field-independent basis, Debye-Ang):
   XX=           -239.5787   YY=           -327.3605   ZZ=           -392.0436
   XY=             -4.7848   XZ=            -26.4864   YZ=             -6.7098

 Normal termination of Gaussian 16 at Thu Jul 23 02:24:27 2020.
