 Gaussian 16, Revision A.03,
 Gaussian 16:  ES64L-G16RevA.03 25-Dec-2016

 ----------------------------------------------------------------------
 # genecp pbe1pbe EmpiricalDispersion=GD3BJ scrf=(SMD,solvent=water) td
 =nstates=25 geom=allcheck
 ----------------------------------------------------------------------

 Structure from the checkpoint file:  "/scratch/js1212.756530/G-Cis-R2-R2-Down-T-GP-TD-SMD.chk"
 -------------------
 Title Card Required
 -------------------
 Charge =  0 Multiplicity = 3

                         Standard orientation:
 ---------------------------------------------------------------------
 Center     Atomic      Atomic             Coordinates (Angstroms)
 Number     Number       Type             X           Y           Z
 ---------------------------------------------------------------------
      1          1           0        0.840520   -2.253105   -2.784171
      2          6           0       -0.230158   -2.037442   -2.886052
      3          1           0       -0.571017   -2.405574   -3.866215
      4          1           0       -0.341574   -0.944512   -2.837069
      5          1           0       -1.641705    1.800462    2.894724
      6          8           0       -0.722944    0.624911   -1.069750
      7          1           0       -1.479592    3.473847    1.349653
      8          8           0       -1.681426   -1.008340    0.891924
      9          1           0       -0.595352    0.160019    1.526897
     10          6           0       -0.952912   -2.679940   -1.722739
     11          1           0       -2.721201    1.840100    4.311669
     12          1           0       -0.920443   -3.784590   -1.801169
     13          6           0       -2.646058    2.085857    3.238800
     14          1           0       -1.256538    2.941281   -0.325333
     15          1           0       -2.759354    3.174914    3.151148
     16          1           0       -0.445563   -2.387912   -0.792593
     17          6           0       -1.834795    3.616733    0.322705
     18          1           0       -1.625744    4.657966    0.024698
     19          1           0       -2.398694   -2.960961    0.341732
     20         44           0       -2.595661   -0.160915   -0.647757
     21          1           0       -2.652696   -0.583335    2.493326
     22          7           0       -2.363148   -2.243423   -1.597840
     23          6           0       -3.036594   -3.039160   -0.553257
     24          6           0       -3.748979    1.319463    2.504349
     25          1           0       -3.648124   -0.268726    3.946686
     26          1           0       -3.946248    4.289287    2.052227
     27          6           0       -3.607731   -0.166512    2.849355
     28          6           0       -3.335112    3.346998    0.156129
     29         15           0       -3.595934    1.521574    0.597008
     30          1           0       -3.142191   -4.098161   -0.841261
     31          6           0       -4.180564    4.316535    0.981191
     32          1           0       -2.633612   -1.648263   -3.578984
     33          1           0       -2.178938   -4.146393   -3.716820
     34          1           0       -3.980340    5.342251    0.629076
     35          6           0       -3.102421   -2.348180   -2.877649
     36          1           0       -5.107769    1.731920    4.114319
     37          6           0       -3.151991    0.563678   -2.272228
     38          6           0       -5.119370    1.784067    3.013037
     39          1           0       -3.028382    2.969551   -1.976833
     40          6           0       -3.676175    3.559690   -1.319789
     41          1           0       -5.365739    2.817548    2.738220
     42          1           0       -3.503982    4.622204   -1.557985
     43          6           0       -4.367965   -2.437694   -0.210140
     44          7           0       -4.381133   -1.091995   -0.213537
     45          6           0       -3.175257   -3.732976   -3.503393
     46          1           0       -4.425268   -0.772763    2.433539
     47          1           0       -4.118791   -1.968135   -2.696232
     48          1           0       -5.259522    4.134192    0.854399
     49          1           0       -3.720431   -4.456658   -2.879204
     50          6           0       -5.345681    1.093197    0.046163
     51          1           0       -3.714323   -3.660157   -4.459844
     52          1           0       -5.933311    1.126633    2.673275
     53          6           0       -5.494495   -0.396101    0.100035
     54          6           0       -5.509066   -3.156509    0.127481
     55          1           0       -4.728466    3.342796   -1.559118
     56          1           0       -5.485283   -4.246740    0.124270
     57          1           0       -5.399197    1.410819   -1.008037
     58          1           0       -6.146543    1.604813    0.594645
     59          6           0       -6.662671   -1.067449    0.453768
     60          6           0       -6.666379   -2.459862    0.469732
     61          1           0       -7.556495   -0.499087    0.712483
     62          1           0       -7.572984   -3.002060    0.744047
     63          8           0       -3.404041    0.961021   -3.331813
     64          6           0        0.899036   -3.731710    2.714489
     65          1           0        1.013586    1.041583   -2.295062
     66          8           0       -0.127983    0.986511    1.822672
     67          1           0        1.241315    3.201249   -0.856209
     68          8           0        1.518521   -1.136903   -0.494076
     69          1           0        0.823356    0.812782    1.654215
     70          6           0        1.176909   -2.345102    2.156210
     71          1           0        1.492109    1.027322   -4.010854
     72          6           0        1.756866    1.421853   -3.014456
     73          1           0        1.767705    3.005753    0.820899
     74          1           0        1.648987    2.515906   -3.064146
     75          6           0        1.976386    3.544749   -0.113824
     76          1           0        1.818024    4.623826    0.053638
     77          1           0        2.530222   -3.004408    0.158900
     78         44           0        2.766478   -0.041393    0.737671
     79          1           0        2.675610   -1.031552   -2.079109
     80          7           0        2.600899   -1.987008    1.958358
     81          6           0        3.232817   -2.924162    1.004029
     82          6           0        3.190794    1.001635   -2.683684
     83          1           0        2.996871   -0.799612   -3.838754
     84          1           0        2.989248    4.019117   -2.619036
     85          6           0        3.315651   -0.521897   -2.819195
     86          6           0        3.417290    3.308497   -0.581732
     87         15           0        3.542536    1.421377   -0.853564
     88          1           0        3.388582   -3.919592    1.455650
     89          6           0        3.705467    4.179779   -1.803251
     90          1           0        4.355622   -1.540723    2.982144
     91          1           0        2.384355   -0.232368    4.033436
     92          1           0        3.623571    5.237651   -1.500590
     93          6           0        3.375969   -1.984337    3.216833
     94          1           0        3.943597    1.200830   -4.679991
     95          6           0        3.494176    0.946255    2.090611
     96          6           0        4.167311    1.624280   -3.686102
     97          1           0        4.293312    3.151737    1.438317
     98          6           0        4.386207    3.742778    0.520397
     99          1           0        4.084752    2.712475   -3.771938
    100          1           0        4.165011    4.791332    0.781934
    101          6           0        4.531632   -2.401742    0.449828
    102          7           0        4.510009   -1.098427    0.143389
    103          6           0        2.721022   -1.226939    4.354163
    104          1           0        4.359113   -0.855576   -2.704327
    105          1           0        3.565496   -3.030247    3.530976
    106          1           0        4.723494    4.029299   -2.191440
    107          1           0        1.858386   -1.768435    4.768531
    108          6           0        5.374138    0.991325   -0.690997
    109          1           0        3.451661   -1.089274    5.164549
    110          1           0        5.215016    1.369754   -3.464524
    111          6           0        5.548507   -0.480938   -0.441955
    112          6           0        5.658441   -3.172083    0.183899
    113          1           0        5.432822    3.709792    0.179582
    114          1           0        5.676003   -4.231570    0.443579
    115          1           0        5.701470    1.523475    0.217377
    116          1           0        6.006222    1.335394   -1.522438
    117          6           0        6.698779   -1.205954   -0.753863
    118          6           0        6.750751   -2.560543   -0.432417
    119          1           0        7.542277   -0.711781   -1.238004
    120          1           0        7.646385   -3.141539   -0.660614
    121          1           0        0.785272   -0.560252   -0.789926
    122          8           0        3.924814    1.549179    3.002676
    123          1           0       -0.189494   -3.846409    2.830964
    124          1           0        1.354562   -3.901281    3.703340
    125          1           0        1.239278   -4.534273    2.041754
    126          1           0        0.711876   -2.202400    1.171256
    127          1           0        0.743999   -1.577382    2.809616
    128          1           0       -0.434344    0.987328   -0.216313
 ---------------------------------------------------------------------

 SCF Done:  E(UPBE1PBE) =  -3109.30640429     A.U. after   30 cycles

 Excitation energies and oscillator strengths:

 Excited State   1:  3.011-A      0.3941 eV 3145.64 nm  f=0.0001  <S**2>=2.017
    205B -> 226B      -0.14169
    210B -> 226B      -0.16423
    216B -> 226B      -0.15766
    220B -> 226B       0.28499
    222B -> 226B       0.86427
    223B -> 226B       0.14736
    224B -> 226B      -0.19890
    225B -> 226B      -0.11829
    222B <- 226B       0.14071
 This state for optimization and/or second-order correction.
 Total Energy, E(TD-HF/TD-DFT) =  -3109.29191970
 Copying the excited state density for this state as the 1-particle RhoCI density.

 Excited State   2:  3.040-A      1.3284 eV  933.33 nm  f=0.0029  <S**2>=2.061
    221B -> 226B       0.11040
    222B -> 226B      -0.26098
    223B -> 226B       0.81654
    224B -> 226B      -0.47605

 Excited State   3:  3.037-A      1.6985 eV  729.96 nm  f=0.0044  <S**2>=2.057
    225B -> 226B       0.97383

 Excited State   4:  3.018-A      1.8728 eV  662.04 nm  f=0.0020  <S**2>=2.027
    227A -> 229A      -0.31174
    221B -> 228B       0.10331
    221B -> 230B       0.11962
    223B -> 230B      -0.10852
    224B -> 228B      -0.17888
    224B -> 230B      -0.20857
    224B -> 231B      -0.14625
    225B -> 226B      -0.14178
    225B -> 228B       0.50457
    225B -> 230B       0.48450
    225B -> 231B       0.33789
    225B -> 232B      -0.10074
    225B -> 234B      -0.13295

 Excited State   5:  3.037-A      1.9035 eV  651.33 nm  f=0.0040  <S**2>=2.057
    227A -> 229A       0.90141
    227A -> 233A       0.23543
    225B -> 228B       0.19653
    225B -> 230B       0.17964
    225B -> 231B       0.11666

 Excited State   6:  3.036-A      2.1142 eV  586.43 nm  f=0.0019  <S**2>=2.055
    210B -> 226B       0.14100
    212B -> 226B       0.13874
    216B -> 226B      -0.19243
    223B -> 226B       0.49008
    224B -> 226B       0.79179

 Excited State   7:  3.011-A      2.1367 eV  580.26 nm  f=0.0051  <S**2>=2.017
    203B -> 226B      -0.13412
    204B -> 226B      -0.15273
    205B -> 226B       0.19535
    208B -> 226B       0.28961
    209B -> 226B      -0.20257
    210B -> 226B      -0.41777
    212B -> 226B      -0.41413
    216B -> 226B       0.46546
    220B -> 226B       0.19646
    223B -> 226B       0.14564
    224B -> 226B       0.29491

 Excited State   8:  3.070-A      2.3016 eV  538.70 nm  f=0.0066  <S**2>=2.107
    227A -> 233A      -0.10701
    205B -> 226B      -0.14011
    210B -> 226B      -0.11388
    214B -> 226B      -0.12804
    215B -> 226B       0.14075
    216B -> 226B      -0.22144
    220B -> 226B       0.78381
    221B -> 226B       0.14583
    222B -> 226B      -0.36443
    222B -> 232B      -0.13849
    223B -> 226B      -0.14102

 Excited State   9:  3.027-A      2.3247 eV  533.33 nm  f=0.0135  <S**2>=2.041
    227A -> 229A      -0.26231
    227A -> 233A       0.85813
    227A -> 234A      -0.10129
    227A -> 235A      -0.11299
    227A -> 236A      -0.18514
    227A -> 239A      -0.11698
    224B -> 228B       0.16100
    224B -> 230B       0.10459

 Excited State  10:  3.048-A      2.4190 eV  512.54 nm  f=0.0132  <S**2>=2.073
    227A -> 228A      -0.37677
    227A -> 233A      -0.18952
    221B -> 226B       0.17378
    223B -> 228B       0.22722
    223B -> 230B       0.19097
    223B -> 231B       0.13105
    224B -> 228B       0.49509
    224B -> 230B       0.40532
    224B -> 231B       0.28173
    225B -> 228B       0.23903
    225B -> 230B       0.14989

 Excited State  11:  3.032-A      2.4241 eV  511.46 nm  f=0.0035  <S**2>=2.048
    227A -> 228A       0.92343
    227A -> 233A      -0.12930
    224B -> 228B       0.19344
    224B -> 230B       0.15765
    224B -> 231B       0.10935

 Excited State  12:  3.040-A      2.4588 eV  504.25 nm  f=0.0002  <S**2>=2.060
    220B -> 226B      -0.11216
    221B -> 226B       0.95529
    224B -> 228B      -0.10059

 Excited State  13:  3.036-A      2.5982 eV  477.19 nm  f=0.0003  <S**2>=2.055
    227A -> 231A       0.99284

 Excited State  14:  4.051-A      2.6255 eV  472.23 nm  f=0.0004  <S**2>=3.853
    223A -> 232A      -0.17167
    224A -> 232A       0.22729
    225A -> 228A       0.14571
    225A -> 230A       0.15067
    225A -> 232A       0.59110
    222B -> 232B       0.19975
    223B -> 227B      -0.10422
    223B -> 229B      -0.12343
    223B -> 232B      -0.45946
    224B -> 232B       0.23281

 Excited State  15:  3.926-A      2.8391 eV  436.71 nm  f=0.0007  <S**2>=3.604
    224A -> 233A       0.15932
    226A -> 229A      -0.21973
    226A -> 233A      -0.36958
    221B -> 228B      -0.23393
    221B -> 230B      -0.21638
    221B -> 231B      -0.15034
    224B -> 228B      -0.14293
    224B -> 234B      -0.12413
    225B -> 228B       0.45109
    225B -> 230B      -0.10837
    225B -> 233B       0.12300
    225B -> 234B       0.35614
    225B -> 235B      -0.14148
    225B -> 236B      -0.26760

 Excited State  16:  3.265-A      2.8884 eV  429.25 nm  f=0.0016  <S**2>=2.415
    224A -> 233A       0.11701
    226A -> 229A      -0.13059
    226A -> 233A      -0.22197
    227A -> 241A      -0.13562
    221B -> 228B       0.57291
    221B -> 230B       0.45844
    221B -> 231B       0.31924
    223B -> 228B      -0.17655
    225B -> 230B      -0.15358
    225B -> 234B       0.15877

 Excited State  17:  3.298-A      2.9852 eV  415.32 nm  f=0.0077  <S**2>=2.469
    223A -> 228A       0.11706
    223A -> 232A       0.20308
    227A -> 230A       0.77304
    227A -> 232A       0.18084
    210B -> 226B      -0.14880
    214B -> 226B      -0.16736
    216B -> 226B      -0.16841
    220B -> 226B      -0.18805
    222B -> 227B      -0.23191
    222B -> 232B      -0.20625
    223B -> 232B      -0.10321

 Excited State  18:  3.390-A      2.9954 eV  413.92 nm  f=0.0060  <S**2>=2.622
    223A -> 228A      -0.12189
    223A -> 232A      -0.23126
    227A -> 230A       0.59612
    210B -> 226B       0.22837
    212B -> 226B       0.14400
    214B -> 226B       0.25532
    216B -> 226B       0.26099
    220B -> 226B       0.27327
    222B -> 227B       0.29452
    222B -> 232B       0.26761

 Excited State  19:  3.661-A      3.0737 eV  403.37 nm  f=0.0093  <S**2>=3.100
    216A -> 230A      -0.11722
    221A -> 228A      -0.10831
    223A -> 228A       0.41222
    223A -> 232A       0.15387
    225A -> 228A       0.10036
    225A -> 232A       0.13623
    210B -> 226B       0.27152
    212B -> 226B       0.16290
    214B -> 226B       0.28221
    215B -> 226B      -0.15559
    216B -> 226B       0.34211
    220B -> 226B       0.21053
    220B -> 227B       0.10251
    222B -> 226B       0.12000
    222B -> 227B      -0.40151
    222B -> 232B      -0.17034

 Excited State  20:  3.463-A      3.1169 eV  397.78 nm  f=0.0018  <S**2>=2.747
    224A -> 229A      -0.15878
    224A -> 233A      -0.15053
    226A -> 229A       0.20648
    226A -> 233A       0.29680
    221B -> 228B       0.12167
    225B -> 228B       0.60853
    225B -> 230B      -0.47303
    225B -> 231B      -0.32200

 Excited State  21:  3.975-A      3.1333 eV  395.70 nm  f=0.0016  <S**2>=3.699
    206A -> 229A       0.10284
    217A -> 231A      -0.15527
    224A -> 229A      -0.40715
    225A -> 229A       0.12715
    226A -> 229A      -0.39381
    226A -> 233A      -0.17656
    206B -> 228B      -0.11637
    217B -> 231B      -0.14280
    223B -> 228B       0.18016
    223B -> 230B      -0.15619
    223B -> 231B      -0.10792
    224B -> 228B       0.41525
    224B -> 230B      -0.32965
    224B -> 231B      -0.20753
    224B -> 234B       0.10813

 Excited State  22:  3.038-A      3.1446 eV  394.27 nm  f=0.0142  <S**2>=2.058
    223A -> 232A      -0.13663
    224A -> 232A       0.16111
    225A -> 228A       0.29588
    225A -> 230A       0.12268
    225A -> 232A       0.42475
    227A -> 232A      -0.18720
    222B -> 232B      -0.13727
    223B -> 227B       0.34281
    223B -> 229B       0.14530
    223B -> 232B       0.45351
    224B -> 227B      -0.21254
    224B -> 232B      -0.24397

 Excited State  23:  3.190-A      3.1964 eV  387.89 nm  f=0.0031  <S**2>=2.294
    223A -> 228A      -0.11014
    223A -> 232A       0.14774
    225A -> 232A       0.13407
    227A -> 230A      -0.18062
    227A -> 232A       0.87026
    222B -> 227B       0.17995
    222B -> 232B      -0.14779

 Excited State  24:  3.895-A      3.2394 eV  382.74 nm  f=0.0064  <S**2>=3.542
    216A -> 230A       0.10767
    223A -> 228A      -0.15985
    223A -> 230A       0.11723
    223A -> 232A       0.45173
    225A -> 232A       0.11242
    227A -> 232A      -0.33081
    214B -> 226B       0.12156
    216B -> 226B       0.14333
    222B -> 227B       0.38324
    222B -> 229B      -0.11971
    222B -> 232B      -0.42634
    223B -> 232B      -0.10694
    224B -> 232B       0.11658
    225B -> 227B      -0.11459

 Excited State  25:  4.062-A      3.2625 eV  380.02 nm  f=0.0004  <S**2>=3.875
    223A -> 228A       0.10355
    224A -> 228A      -0.18096
    225A -> 228A      -0.57524
    226A -> 228A       0.10435
    222B -> 227B      -0.16102
    223B -> 227B       0.59164
    223B -> 232B      -0.14434
    224B -> 227B      -0.37221

 The electronic state is 3-A.
 Alpha  occ. eigenvalues --  -77.26016 -77.24733 -19.27655 -19.23919 -19.19470
 Alpha  occ. eigenvalues --  -19.18940 -19.15034 -19.13183 -14.44630 -14.43890
 Alpha  occ. eigenvalues --  -14.42841 -14.42733 -10.32872 -10.29827 -10.29723
 Alpha  occ. eigenvalues --  -10.29366 -10.28949 -10.28494 -10.26195 -10.26078
 Alpha  occ. eigenvalues --  -10.25855 -10.25784 -10.25767 -10.25498 -10.25467
 Alpha  occ. eigenvalues --  -10.25175 -10.25100 -10.25095 -10.25077 -10.24870
 Alpha  occ. eigenvalues --  -10.24712 -10.24660 -10.24520 -10.24500 -10.23939
 Alpha  occ. eigenvalues --  -10.23908 -10.21938 -10.21862 -10.21847 -10.21799
 Alpha  occ. eigenvalues --  -10.21572 -10.21567 -10.21466 -10.21444 -10.21433
 Alpha  occ. eigenvalues --  -10.21354 -10.21307 -10.21247 -10.20995 -10.20941
 Alpha  occ. eigenvalues --  -10.20689 -10.19985  -6.63914  -6.62572  -4.77562
 Alpha  occ. eigenvalues --   -4.77463  -4.77251  -4.76228  -4.76151  -4.75874
 Alpha  occ. eigenvalues --   -3.05445  -3.02646  -1.89455  -1.88306  -1.87594
 Alpha  occ. eigenvalues --   -1.86820  -1.85639  -1.85153  -1.14309  -1.10413
 Alpha  occ. eigenvalues --   -1.01256  -1.00505  -1.00211  -0.96972  -0.96103
 Alpha  occ. eigenvalues --   -0.92872  -0.91294  -0.90659  -0.85350  -0.84487
 Alpha  occ. eigenvalues --   -0.84083  -0.83596  -0.83324  -0.82856  -0.82675
 Alpha  occ. eigenvalues --   -0.81986  -0.77752  -0.77560  -0.77163  -0.76350
 Alpha  occ. eigenvalues --   -0.74360  -0.73604  -0.70574  -0.70462  -0.70149
 Alpha  occ. eigenvalues --   -0.70094  -0.69987  -0.69654  -0.69520  -0.69254
 Alpha  occ. eigenvalues --   -0.69109  -0.68507  -0.66271  -0.65972  -0.65288
 Alpha  occ. eigenvalues --   -0.65073  -0.63482  -0.63384  -0.62313  -0.61530
 Alpha  occ. eigenvalues --   -0.57922  -0.57427  -0.57089  -0.56127  -0.55513
 Alpha  occ. eigenvalues --   -0.55299  -0.53564  -0.53194  -0.53041  -0.52646
 Alpha  occ. eigenvalues --   -0.52124  -0.51751  -0.51290  -0.50971  -0.50382
 Alpha  occ. eigenvalues --   -0.49777  -0.49088  -0.48729  -0.48275  -0.47749
 Alpha  occ. eigenvalues --   -0.47378  -0.46774  -0.46698  -0.46355  -0.46162
 Alpha  occ. eigenvalues --   -0.45766  -0.45507  -0.45469  -0.45201  -0.45050
 Alpha  occ. eigenvalues --   -0.44873  -0.44651  -0.44580  -0.44401  -0.44186
 Alpha  occ. eigenvalues --   -0.43925  -0.43775  -0.43711  -0.43549  -0.43542
 Alpha  occ. eigenvalues --   -0.42945  -0.42719  -0.42446  -0.42225  -0.42007
 Alpha  occ. eigenvalues --   -0.41954  -0.41759  -0.41708  -0.41596  -0.40945
 Alpha  occ. eigenvalues --   -0.40833  -0.40776  -0.40534  -0.40019  -0.39603
 Alpha  occ. eigenvalues --   -0.39402  -0.39348  -0.39129  -0.38780  -0.38633
 Alpha  occ. eigenvalues --   -0.38247  -0.38178  -0.38027  -0.37861  -0.37721
 Alpha  occ. eigenvalues --   -0.37595  -0.37374  -0.37171  -0.37035  -0.36658
 Alpha  occ. eigenvalues --   -0.36579  -0.36314  -0.36153  -0.35847  -0.35747
 Alpha  occ. eigenvalues --   -0.35638  -0.35407  -0.35278  -0.34906  -0.34822
 Alpha  occ. eigenvalues --   -0.34677  -0.34360  -0.34287  -0.34042  -0.33849
 Alpha  occ. eigenvalues --   -0.33463  -0.33370  -0.33211  -0.33154  -0.32975
 Alpha  occ. eigenvalues --   -0.32913  -0.32302  -0.32144  -0.31881  -0.31663
 Alpha  occ. eigenvalues --   -0.31435  -0.31239  -0.30810  -0.30464  -0.29976
 Alpha  occ. eigenvalues --   -0.29715  -0.29215  -0.28592  -0.28071  -0.27337
 Alpha  occ. eigenvalues --   -0.26944  -0.26486  -0.26323  -0.25974  -0.25679
 Alpha  occ. eigenvalues --   -0.23601  -0.21958  -0.21286  -0.20728  -0.20037
 Alpha  occ. eigenvalues --   -0.19182  -0.14730
 Alpha virt. eigenvalues --   -0.04155  -0.03248  -0.02058  -0.01387  -0.00677
 Alpha virt. eigenvalues --    0.00731   0.01344   0.01570   0.01919   0.02124
 Alpha virt. eigenvalues --    0.02749   0.03658   0.03899   0.04191   0.04562

  Beta  occ. eigenvalues --  -77.26015 -77.24741 -19.27594 -19.23914 -19.18768
  Beta  occ. eigenvalues --  -19.17324 -19.15029 -19.13133 -14.44627 -14.43838
  Beta  occ. eigenvalues --  -14.42741 -14.42591 -10.32870 -10.29829 -10.29783
  Beta  occ. eigenvalues --  -10.29365 -10.28956 -10.28494 -10.26199 -10.26078
  Beta  occ. eigenvalues --  -10.25847 -10.25782 -10.25768 -10.25496 -10.25469
  Beta  occ. eigenvalues --  -10.25174 -10.25099 -10.25093 -10.25078 -10.24864
  Beta  occ. eigenvalues --  -10.24708 -10.24667 -10.24511 -10.24494 -10.23937
  Beta  occ. eigenvalues --  -10.23906 -10.21938 -10.21861 -10.21848 -10.21791
  Beta  occ. eigenvalues --  -10.21573 -10.21565 -10.21466 -10.21441 -10.21432
  Beta  occ. eigenvalues --  -10.21340 -10.21249 -10.21227 -10.20994 -10.20937
  Beta  occ. eigenvalues --  -10.20688 -10.19986  -6.63913  -6.62583  -4.77562
  Beta  occ. eigenvalues --   -4.77463  -4.77245  -4.76232  -4.76159  -4.75901
  Beta  occ. eigenvalues --   -3.04946  -3.00167  -1.88824  -1.87567  -1.87267
  Beta  occ. eigenvalues --   -1.84656  -1.83494  -1.81030  -1.14210  -1.10390
  Beta  occ. eigenvalues --   -1.01238  -1.00044  -0.99948  -0.96900  -0.96082
  Beta  occ. eigenvalues --   -0.92741  -0.90554  -0.85423  -0.85015  -0.84481
  Beta  occ. eigenvalues --   -0.84068  -0.83563  -0.83232  -0.82827  -0.82599
  Beta  occ. eigenvalues --   -0.81987  -0.77737  -0.77553  -0.77146  -0.76321
  Beta  occ. eigenvalues --   -0.74347  -0.73588  -0.70552  -0.70446  -0.70126
  Beta  occ. eigenvalues --   -0.70073  -0.69967  -0.69646  -0.69470  -0.69158
  Beta  occ. eigenvalues --   -0.69100  -0.68508  -0.66258  -0.65957  -0.65235
  Beta  occ. eigenvalues --   -0.65066  -0.63400  -0.63374  -0.62297  -0.61484
  Beta  occ. eigenvalues --   -0.57800  -0.57364  -0.57057  -0.56097  -0.55505
  Beta  occ. eigenvalues --   -0.55258  -0.53526  -0.53157  -0.52915  -0.52602
  Beta  occ. eigenvalues --   -0.52074  -0.51450  -0.51259  -0.50703  -0.50233
  Beta  occ. eigenvalues --   -0.49733  -0.49052  -0.48678  -0.48237  -0.47727
  Beta  occ. eigenvalues --   -0.47327  -0.46691  -0.46502  -0.46319  -0.46151
  Beta  occ. eigenvalues --   -0.45653  -0.45480  -0.45142  -0.45113  -0.44989
  Beta  occ. eigenvalues --   -0.44838  -0.44550  -0.44492  -0.44322  -0.44089
  Beta  occ. eigenvalues --   -0.43785  -0.43678  -0.43557  -0.43496  -0.43453
  Beta  occ. eigenvalues --   -0.42912  -0.42681  -0.42209  -0.42125  -0.41961
  Beta  occ. eigenvalues --   -0.41915  -0.41691  -0.41622  -0.41443  -0.40929
  Beta  occ. eigenvalues --   -0.40776  -0.40703  -0.40173  -0.39832  -0.39560
  Beta  occ. eigenvalues --   -0.39358  -0.39239  -0.39051  -0.38766  -0.38250
  Beta  occ. eigenvalues --   -0.38191  -0.38067  -0.37875  -0.37708  -0.37628
  Beta  occ. eigenvalues --   -0.37563  -0.37304  -0.37080  -0.36950  -0.36607
  Beta  occ. eigenvalues --   -0.36292  -0.36141  -0.36069  -0.35802  -0.35697
  Beta  occ. eigenvalues --   -0.35476  -0.35341  -0.35063  -0.34801  -0.34745
  Beta  occ. eigenvalues --   -0.34527  -0.34312  -0.33998  -0.33848  -0.33440
  Beta  occ. eigenvalues --   -0.33305  -0.33138  -0.33005  -0.32868  -0.32737
  Beta  occ. eigenvalues --   -0.32299  -0.32239  -0.31783  -0.31734  -0.31066
  Beta  occ. eigenvalues --   -0.31034  -0.30479  -0.29958  -0.29843  -0.29236
  Beta  occ. eigenvalues --   -0.29139  -0.28318  -0.27802  -0.27162  -0.26834
  Beta  occ. eigenvalues --   -0.26802  -0.26390  -0.26155  -0.25308  -0.24322
  Beta  occ. eigenvalues --   -0.20997  -0.20468  -0.20020  -0.19501  -0.18282
  Beta virt. eigenvalues --   -0.09248  -0.04120  -0.03705  -0.02039  -0.01527
  Beta virt. eigenvalues --   -0.01318  -0.00262   0.01393   0.01569   0.02024
  Beta virt. eigenvalues --    0.02166   0.02724   0.02844   0.03738   0.04321

 Mulliken charges and spin densities:
               1          2
     1  H    0.067374   0.000096
     2  C   -0.129977   0.000272
     3  H    0.062464   0.000247
     4  H    0.097356   0.000198
     5  H    0.073396   0.001485
     6  O   -0.514155   0.002046
     7  H    0.053522  -0.000135
     8  O   -0.482983   0.819809
     9  H    0.246177  -0.012467
    10  C   -0.008457   0.003204
    11  H    0.046551   0.000215
    12  H    0.057149   0.000108
    13  C   -0.035439   0.001394
    14  H    0.092041  -0.000105
    15  H    0.056105  -0.000095
    16  H    0.101279   0.001642
    17  C   -0.034407   0.000166
    18  H    0.051744   0.000016
    19  H    0.127789  -0.001957
    20  Ru   0.103956   0.097620
    21  H    0.097501  -0.008238
    22  N   -0.387183   0.017157
    23  C    0.130527  -0.001098
    24  C   -0.457362   0.000140
    25  H    0.046282   0.002766
    26  H    0.064725   0.000019
    27  C   -0.022938   0.039495
    28  C   -0.453579  -0.000283
    29  P    0.206431   0.003714
    30  H    0.075190   0.000051
    31  C    0.000099  -0.000112
    32  H    0.095364   0.000142
    33  H    0.064631  -0.000024
    34  H    0.051350   0.000002
    35  C   -0.053402  -0.000618
    36  H    0.049638   0.000291
    37  C    0.026096   0.007776
    38  C   -0.005366   0.002362
    39  H    0.094106   0.000148
    40  C   -0.031565  -0.000169
    41  H    0.046997   0.000455
    42  H    0.055156   0.000012
    43  C    0.022563   0.000430
    44  N   -0.314028   0.001743
    45  C   -0.074506   0.000213
    46  H    0.082261  -0.001511
    47  H    0.127698   0.000301
    48  H    0.064375  -0.000014
    49  H    0.065801  -0.000029
    50  C   -0.078519   0.001930
    51  H    0.064413   0.000128
    52  H    0.061419  -0.000100
    53  C    0.047003  -0.001281
    54  C   -0.046641   0.001197
    55  H    0.068536   0.000008
    56  H    0.036814   0.000190
    57  H    0.126221   0.000015
    58  H    0.084180   0.000355
    59  C   -0.043971   0.000982
    60  C    0.080962  -0.000463
    61  H    0.038980  -0.000083
    62  H    0.050179   0.000015
    63  O   -0.148339   0.021785
    64  C   -0.084672   0.000969
    65  H    0.094783  -0.000645
    66  O   -0.346863   0.038207
    67  H    0.074029  -0.000508
    68  O   -0.542701   0.010100
    69  H    0.321484   0.024457
    70  C   -0.051745   0.000905
    71  H    0.044287   0.000242
    72  C   -0.052082   0.000405
    73  H    0.102729  -0.003371
    74  H    0.055366  -0.000042
    75  C   -0.037923   0.002928
    76  H    0.047247   0.001511
    77  H    0.117655  -0.000070
    78  Ru  -0.293032   0.890080
    79  H    0.108291   0.000238
    80  N   -0.377789  -0.004060
    81  C    0.120426   0.002870
    82  C   -0.448524  -0.002846
    83  H    0.034915  -0.000092
    84  H    0.061176   0.000047
    85  C   -0.056352   0.000220
    86  C   -0.452007  -0.000897
    87  P    0.197911  -0.016497
    88  H    0.065110  -0.000666
    89  C   -0.000127  -0.000422
    90  H    0.097677   0.000007
    91  H    0.097229  -0.001242
    92  H    0.046128  -0.000025
    93  C    0.003332   0.000461
    94  H    0.042823  -0.000385
    95  C   -0.057176  -0.022095
    96  C   -0.001953  -0.000304
    97  H    0.066469  -0.000858
    98  C   -0.032184   0.000391
    99  H    0.040041   0.000056
   100  H    0.049723  -0.000078
   101  C    0.022110   0.000382
   102  N   -0.294882   0.074211
   103  C   -0.120604   0.000988
   104  H    0.062675   0.000085
   105  H    0.055514  -0.000321
   106  H    0.058362   0.000091
   107  H    0.066135   0.000002
   108  C   -0.085217   0.001717
   109  H    0.065456  -0.000070
   110  H    0.052205   0.000016
   111  C    0.050946  -0.000906
   112  C   -0.051569   0.003247
   113  H    0.062831  -0.000030
   114  H    0.031416   0.001624
   115  H    0.114858  -0.000386
   116  H    0.083030  -0.000885
   117  C   -0.050712   0.002416
   118  C    0.069806   0.000243
   119  H    0.031711   0.001354
   120  H    0.044514  -0.000142
   121  H    0.227951  -0.001575
   122  O   -0.237718  -0.000610
   123  H    0.064072  -0.000082
   124  H    0.056918   0.000017
   125  H    0.063425   0.000223
   126  H    0.134330  -0.001762
   127  H    0.092328  -0.000336
   128  H    0.236821  -0.002060
 Sum of Mulliken charges =  -0.00000   2.00000

 Dipole moment (field-independent basis, Debye):
    X=             -7.6437    Y=             -7.0286    Z=             -1.8882  Tot=             10.5542
 Quadrupole moment (field-independent basis, Debye-Ang):
   XX=           -236.9992   YY=           -324.1576   ZZ=           -387.3880
   XY=             -4.3046   XZ=            -25.7082   YZ=             -6.3847

 Normal termination of Gaussian 16 at Wed Jul 15 21:17:48 2020.
