 Gaussian 16, Revision A.03,
 Gaussian 16:  ES64L-G16RevA.03 25-Dec-2016

 ----------------------------------------------------------------------
 # opt=ModRedundant genecp pbe1pbe EmpiricalDispersion=GD3BJ NoSymm Geo
 m=AllCheck
 ----------------------------------------------------------------------

 Structure from the checkpoint file:  "/scratch/js1212.752481/GMe-Cis-Mono-D-0-OO-Scan.chk"
 -------------------
 Title Card Required
 -------------------
 Charge =  0 Multiplicity = 2

 SCF Done:  E(UPBE1PBE) =  -1239.83790295     A.U. after   36 cycles
 Optimization completed.
    -- Stationary point found.
 SCF Done:  E(UPBE1PBE) =  -1239.83272055     A.U. after   28 cycles
 SCF Done:  E(UPBE1PBE) =  -1239.83335044     A.U. after   27 cycles
 SCF Done:  E(UPBE1PBE) =  -1239.83265689     A.U. after   27 cycles
 SCF Done:  E(UPBE1PBE) =  -1239.83438732     A.U. after   25 cycles
 SCF Done:  E(UPBE1PBE) =  -1239.83393098     A.U. after   23 cycles
 SCF Done:  E(UPBE1PBE) =  -1239.83487724     A.U. after   23 cycles
 SCF Done:  E(UPBE1PBE) =  -1239.83500797     A.U. after   25 cycles
 SCF Done:  E(UPBE1PBE) =  -1239.83517215     A.U. after   24 cycles
 SCF Done:  E(UPBE1PBE) =  -1239.83518009     A.U. after   21 cycles
 Optimization completed.
    -- Stationary point found.
 SCF Done:  E(UPBE1PBE) =  -1239.78622638     A.U. after   16 cycles
 SCF Done:  E(UPBE1PBE) =  -1239.78623950     A.U. after   15 cycles
 SCF Done:  E(UPBE1PBE) =  -1239.78624580     A.U. after   14 cycles
 SCF Done:  E(UPBE1PBE) =  -1239.78625458     A.U. after   13 cycles
 SCF Done:  E(UPBE1PBE) =  -1239.78626771     A.U. after   14 cycles
 SCF Done:  E(UPBE1PBE) =  -1239.78628006     A.U. after   14 cycles
 SCF Done:  E(UPBE1PBE) =  -1239.78628468     A.U. after   13 cycles
 SCF Done:  E(UPBE1PBE) =  -1239.78628708     A.U. after   12 cycles
 SCF Done:  E(UPBE1PBE) =  -1239.78628780     A.U. after   12 cycles
 SCF Done:  E(UPBE1PBE) =  -1239.78628801     A.U. after   11 cycles
 Optimization completed.
    -- Stationary point found.

                          Input orientation:
 ---------------------------------------------------------------------
 Center     Atomic      Atomic             Coordinates (Angstroms)
 Number     Number       Type             X           Y           Z
 ---------------------------------------------------------------------
      1          8           0       -0.048192   -2.016045   -2.476457
      2          8           0        0.056669   -0.677490   -1.941355
      3          6           0        2.396250   -2.479167   -0.552391
      4          1           0        2.247294   -0.243922   -1.655123
      5          7           0        2.003929   -1.247195    0.140117
      6          6           0        2.524636   -0.082657   -0.601047
      7          6           0       -2.770347    0.649546   -1.702155
      8          6           0       -3.707647   -0.116000    0.921801
      9         15           0       -2.172569    0.206556   -0.026684
     10          1           0        3.624228   -0.013238   -0.507764
     11          6           0        2.537794   -1.241813    1.504308
     12          6           0       -0.593212   -1.343334    1.861680
     13          6           0        1.860658    1.205562   -0.196961
     14          7           0        0.567590    1.087844    0.133627
     15          6           0       -1.638298    1.862661    0.699783
     16          6           0       -0.207470    2.161666    0.358397
     17          6           0        2.466797    2.455906   -0.262992
     18          1           0        3.523941    2.542889   -0.517954
     19          1           0       -1.714137    1.717644    1.792519
     20          1           0       -2.304467    2.696333    0.428051
     21          6           0        0.334183    3.443923    0.275973
     22          6           0        1.687064    3.586003   -0.023151
     23          1           0       -0.295569    4.316986    0.452216
     24          1           0        2.133106    4.580839   -0.077827
     25          8           0       -0.874468   -1.619220    2.963626
     26          1           0       -3.418036    1.538895   -1.692060
     27          1           0       -3.331698   -0.204216   -2.110333
     28          1           0       -1.881692    0.802701   -2.332150
     29          1           0       -3.439836   -0.331071    1.966202
     30          1           0       -4.193673   -1.008865    0.502984
     31          1           0       -4.405535    0.734384    0.879887
     32          1           0        2.047309   -3.337683    0.036188
     33          1           0        3.497089   -2.541627   -0.661217
     34          1           0        1.907986   -2.508330   -1.534137
     35          1           0        2.247305   -0.311628    2.010505
     36          1           0        3.642369   -1.323627    1.495502
     37          1           0        2.115722   -2.085127    2.064826
     38         44           0       -0.232901   -0.905381    0.114561
     39          1           0       -1.008704   -2.148373   -2.487176
 ---------------------------------------------------------------------

 Alpha  occ. eigenvalues --  -77.25645 -19.22709 -19.21190 -19.17206 -14.43990
 Alpha  occ. eigenvalues --  -14.43711 -10.30137 -10.29752 -10.28617 -10.27190
 Alpha  occ. eigenvalues --  -10.27142 -10.26188 -10.26157 -10.25902 -10.25525
 Alpha  occ. eigenvalues --  -10.24850 -10.23951 -10.23158  -6.63582  -4.77236
 Alpha  occ. eigenvalues --   -4.77188  -4.76856  -3.01753  -1.85794  -1.85020
 Alpha  occ. eigenvalues --   -1.84421  -1.09007  -1.05961  -1.01183  -0.97444
 Alpha  occ. eigenvalues --   -0.84913  -0.84526  -0.80527  -0.79022  -0.75195
 Alpha  occ. eigenvalues --   -0.73408  -0.72673  -0.71599  -0.66404  -0.64973
 Alpha  occ. eigenvalues --   -0.61794  -0.57054  -0.54670  -0.53394  -0.52548
 Alpha  occ. eigenvalues --   -0.50837  -0.49771  -0.49297  -0.47446  -0.47140
 Alpha  occ. eigenvalues --   -0.46667  -0.45150  -0.44362  -0.43758  -0.43636
 Alpha  occ. eigenvalues --   -0.42971  -0.42602  -0.41750  -0.41410  -0.40717
 Alpha  occ. eigenvalues --   -0.40527  -0.40250  -0.39824  -0.38729  -0.38180
 Alpha  occ. eigenvalues --   -0.38007  -0.36843  -0.35738  -0.35437  -0.34879
 Alpha  occ. eigenvalues --   -0.34483  -0.33076  -0.32243  -0.28286  -0.27571
 Alpha  occ. eigenvalues --   -0.25370  -0.21774  -0.20741  -0.20563  -0.18845
 Alpha  occ. eigenvalues --   -0.13965
 Alpha virt. eigenvalues --   -0.04367  -0.02727   0.00704   0.01170   0.01837
 Alpha virt. eigenvalues --    0.02859   0.04664   0.05930   0.06120   0.07317
 Alpha virt. eigenvalues --    0.07998   0.08227   0.09280   0.09499   0.09994

  Beta  occ. eigenvalues --  -77.25655 -19.22675 -19.21074 -19.17165 -14.43990
  Beta  occ. eigenvalues --  -14.43471 -10.30156 -10.29764 -10.28653 -10.27203
  Beta  occ. eigenvalues --  -10.27134 -10.26176 -10.26142 -10.25902 -10.25523
  Beta  occ. eigenvalues --  -10.24850 -10.23951 -10.23163  -6.63594  -4.77241
  Beta  occ. eigenvalues --   -4.77198  -4.76881  -2.99223  -1.83876  -1.82693
  Beta  occ. eigenvalues --   -1.80042  -1.08942  -1.05757  -1.00961  -0.97409
  Beta  occ. eigenvalues --   -0.84857  -0.84495  -0.80364  -0.79003  -0.75168
  Beta  occ. eigenvalues --   -0.73404  -0.72651  -0.71603  -0.66355  -0.64909
  Beta  occ. eigenvalues --   -0.61751  -0.57039  -0.54547  -0.53272  -0.52512
  Beta  occ. eigenvalues --   -0.50802  -0.49741  -0.49269  -0.47381  -0.47116
  Beta  occ. eigenvalues --   -0.46629  -0.44997  -0.44244  -0.43687  -0.43605
  Beta  occ. eigenvalues --   -0.42869  -0.42481  -0.41599  -0.41388  -0.40487
  Beta  occ. eigenvalues --   -0.40418  -0.40237  -0.39794  -0.38655  -0.38157
  Beta  occ. eigenvalues --   -0.37876  -0.36643  -0.35581  -0.35322  -0.34598
  Beta  occ. eigenvalues --   -0.33765  -0.32315  -0.32046  -0.28257  -0.27521
  Beta  occ. eigenvalues --   -0.24840  -0.20779  -0.19712  -0.19339  -0.18072
  Beta virt. eigenvalues --   -0.04374  -0.02756  -0.01561   0.00929   0.02087
  Beta virt. eigenvalues --    0.02577   0.03185   0.04975   0.06236   0.06632
  Beta virt. eigenvalues --    0.07643   0.08099   0.08483   0.09411   0.09630

 Mulliken charges and spin densities:
               1          2
     1  O   -0.154851   0.025909
     2  O   -0.386577   0.011375
     3  C    0.015658  -0.000486
     4  H    0.125524  -0.000390
     5  N   -0.393526   0.000251
     6  C    0.114777   0.003019
     7  C   -0.183027  -0.003120
     8  C   -0.186274  -0.001926
     9  P    0.013213  -0.006595
    10  H    0.032073  -0.000510
    11  C    0.020111  -0.000080
    12  C   -0.053664  -0.010628
    13  C    0.067995  -0.006706
    14  N   -0.320471   0.064653
    15  C   -0.111092   0.001015
    16  C    0.092833  -0.008040
    17  C   -0.043486   0.007718
    18  H    0.005640   0.001770
    19  H    0.103855  -0.000465
    20  H    0.053237  -0.000949
    21  C   -0.048706   0.007090
    22  C    0.083178  -0.009999
    23  H    0.004195   0.001380
    24  H    0.020214   0.000397
    25  O   -0.160240   0.009985
    26  H    0.056929   0.000141
    27  H    0.076237  -0.000217
    28  H    0.125918  -0.000084
    29  H    0.097146  -0.000604
    30  H    0.086769  -0.000372
    31  H    0.060756   0.001473
    32  H    0.077464  -0.000393
    33  H    0.030973   0.003050
    34  H    0.129093  -0.000650
    35  H    0.092997   0.000212
    36  H    0.035336   0.000298
    37  H    0.087463  -0.000612
    38  Ru   0.147646   0.913073
    39  H    0.184684   0.000020
 Sum of Mulliken charges =  -0.00000   1.00000

 Dipole moment (field-independent basis, Debye):
    X=              0.7788    Y=              4.9200    Z=              0.5125  Tot=              5.0076
 Quadrupole moment (field-independent basis, Debye-Ang):
   XX=           -112.3403   YY=           -125.5902   ZZ=           -150.6591
   XY=             -2.0701   XZ=              4.4208   YZ=              2.6598

 Normal termination of Gaussian 16 at Tue Jun 30 01:02:39 2020.
