 Gaussian 16, Revision A.03,
 Gaussian 16:  ES64L-G16RevA.03 25-Dec-2016

 ---------------------------------------------------
 # opt freq genecp pbe1pbe EmpiricalDispersion=GD3BJ
 ---------------------------------------------------

 -------------------
 Title Card Required
 -------------------
 Symbolic Z-matrix:
 Charge =  0 Multiplicity = 2

 SCF Done:  E(UPBE1PBE) =  -1239.82541421     A.U. after   39 cycles
 SCF Done:  E(UPBE1PBE) =  -1239.83566702     A.U. after   26 cycles
 SCF Done:  E(UPBE1PBE) =  -1239.82576053     A.U. after   29 cycles
 SCF Done:  E(UPBE1PBE) =  -1239.83703226     A.U. after   25 cycles
 SCF Done:  E(UPBE1PBE) =  -1239.82987536     A.U. after   27 cycles
 SCF Done:  E(UPBE1PBE) =  -1239.83768434     A.U. after   23 cycles
 SCF Done:  E(UPBE1PBE) =  -1239.83781795     A.U. after   22 cycles
 SCF Done:  E(UPBE1PBE) =  -1239.83788183     A.U. after   21 cycles
 SCF Done:  E(UPBE1PBE) =  -1239.83789923     A.U. after   21 cycles
 SCF Done:  E(UPBE1PBE) =  -1239.83790395     A.U. after   23 cycles
 SCF Done:  E(UPBE1PBE) =  -1239.83790465     A.U. after   10 cycles
 SCF Done:  E(UPBE1PBE) =  -1239.83790536     A.U. after   12 cycles
 SCF Done:  E(UPBE1PBE) =  -1239.83790563     A.U. after   11 cycles
 SCF Done:  E(UPBE1PBE) =  -1239.83790576     A.U. after   20 cycles
 SCF Done:  E(UPBE1PBE) =  -1239.83790583     A.U. after   19 cycles
 Optimization completed.
    -- Stationary point found.
 Normal termination of Gaussian 16 at Mon Jun 29 00:22:41 2020.

 --------------------------------------------------------------------
 #N Geom=AllCheck Guess=TCheck SCRF=Check GenChk UPBE1PBE/GenECP Freq
 --------------------------------------------------------------------

 Structure from the checkpoint file:  "/scratch/js1212.752227/GMe-Cis-Mono-D-0-GPOF.chk"
 -------------------
 Title Card Required
 -------------------
 Charge =  0 Multiplicity = 2

                         Standard orientation:
 ---------------------------------------------------------------------
 Center     Atomic      Atomic             Coordinates (Angstroms)
 Number     Number       Type             X           Y           Z
 ---------------------------------------------------------------------
      1          8           0       -0.555049   -2.764231   -0.447231
      2          8           0        0.125082   -0.539537   -2.026692
      3          6           0        2.334943   -2.330257   -0.933396
      4          1           0        2.325324    0.000789   -1.749547
      5          7           0        2.034705   -1.177431   -0.078968
      6          6           0        2.562922    0.060563   -0.673759
      7          6           0       -2.660503    0.709134   -1.967051
      8          6           0       -3.682907   -0.222827    0.572539
      9         15           0       -2.136968    0.262992   -0.278674
     10          1           0        3.658167    0.139288   -0.547257
     11          6           0        2.573897   -1.375394    1.265276
     12          6           0       -0.477431   -1.057265    1.740300
     13          6           0        1.865056    1.292451   -0.168278
     14          7           0        0.549351    1.135508    0.081925
     15          6           0       -1.697293    1.886356    0.558148
     16          6           0       -0.243267    2.195175    0.348587
     17          6           0        2.460326    2.544807   -0.081122
     18          1           0        3.529615    2.651908   -0.267128
     19          1           0       -1.874745    1.706685    1.633692
     20          1           0       -2.336004    2.730555    0.255986
     21          6           0        0.298363    3.476825    0.413850
     22          6           0        1.665306    3.649768    0.215853
     23          1           0       -0.350157    4.327853    0.624476
     24          1           0        2.107982    4.645158    0.280139
     25          8           0       -0.729922   -1.229609    2.860758
     26          1           0       -3.434637    1.490459   -1.964580
     27          1           0       -3.041012   -0.201753   -2.451336
     28          1           0       -1.761030    1.014760   -2.518172
     29          1           0       -3.459781   -0.440941    1.626706
     30          1           0       -4.058111   -1.142728    0.100741
     31          1           0       -4.453658    0.559892    0.506186
     32          1           0        1.846600   -3.211363   -0.499362
     33          1           0        3.427186   -2.481616   -1.022509
     34          1           0        1.876268   -2.145844   -1.913274
     35          1           0        2.347497   -0.500015    1.890276
     36          1           0        3.670649   -1.523833    1.235296
     37          1           0        2.101481   -2.258691    1.713361
     38         44           0       -0.172044   -0.787483   -0.083911
     39          1           0       -1.302962   -3.071718    0.077432
 ---------------------------------------------------------------------

 SCF Done:  E(UPBE1PBE) =  -1239.83790583     A.U. after    1 cycles

 The electronic state is 2-A.
 Alpha  occ. eigenvalues --  -77.26430 -19.25888 -19.16028 -19.11903 -14.45516
 Alpha  occ. eigenvalues --  -14.43757 -10.31066 -10.30963 -10.30445 -10.27735
 Alpha  occ. eigenvalues --  -10.27707 -10.26871 -10.26807 -10.26543 -10.25994
 Alpha  occ. eigenvalues --  -10.24770 -10.23450 -10.23364  -6.64451  -4.78106
 Alpha  occ. eigenvalues --   -4.78035  -4.77736  -3.03739  -1.87575  -1.86561
 Alpha  occ. eigenvalues --   -1.86166  -1.12357  -1.01994  -0.97471  -0.88937
 Alpha  occ. eigenvalues --   -0.87385  -0.85679  -0.85313  -0.79848  -0.75873
 Alpha  occ. eigenvalues --   -0.73547  -0.72836  -0.72121  -0.66908  -0.65733
 Alpha  occ. eigenvalues --   -0.61781  -0.57822  -0.55864  -0.55153  -0.53173
 Alpha  occ. eigenvalues --   -0.51075  -0.49954  -0.49421  -0.48022  -0.47348
 Alpha  occ. eigenvalues --   -0.46385  -0.45439  -0.44811  -0.44517  -0.44129
 Alpha  occ. eigenvalues --   -0.43560  -0.43333  -0.43253  -0.42288  -0.41391
 Alpha  occ. eigenvalues --   -0.40906  -0.40247  -0.38937  -0.38530  -0.38240
 Alpha  occ. eigenvalues --   -0.36783  -0.36521  -0.36012  -0.35716  -0.34121
 Alpha  occ. eigenvalues --   -0.33313  -0.30805  -0.28878  -0.28590  -0.28049
 Alpha  occ. eigenvalues --   -0.26945  -0.25571  -0.24787  -0.20658  -0.19576
 Alpha  occ. eigenvalues --   -0.17454
 Alpha virt. eigenvalues --   -0.05146  -0.03445   0.00209   0.01651   0.01951
 Alpha virt. eigenvalues --    0.02620   0.03411   0.04030   0.04889   0.06380
 Alpha virt. eigenvalues --    0.07567   0.07855   0.08353   0.09328   0.09504

  Beta  occ. eigenvalues --  -77.26430 -19.25827 -19.13635 -19.11872 -14.45474
  Beta  occ. eigenvalues --  -14.43760 -10.31055 -10.30977 -10.30458 -10.27723
  Beta  occ. eigenvalues --  -10.27718 -10.26864 -10.26801 -10.26543 -10.25994
  Beta  occ. eigenvalues --  -10.24771 -10.23449 -10.23367  -6.64452  -4.78107
  Beta  occ. eigenvalues --   -4.78035  -4.77736  -3.03525  -1.87313  -1.86429
  Beta  occ. eigenvalues --   -1.85834  -1.12258  -1.01960  -0.97463  -0.88821
  Beta  occ. eigenvalues --   -0.85698  -0.85337  -0.80409  -0.79481  -0.75862
  Beta  occ. eigenvalues --   -0.73513  -0.72824  -0.72109  -0.66907  -0.65725
  Beta  occ. eigenvalues --   -0.61771  -0.57817  -0.55723  -0.55109  -0.53155
  Beta  occ. eigenvalues --   -0.51045  -0.49898  -0.49401  -0.48017  -0.47347
  Beta  occ. eigenvalues --   -0.46319  -0.45400  -0.44708  -0.44450  -0.44017
  Beta  occ. eigenvalues --   -0.43430  -0.43242  -0.43065  -0.42265  -0.41350
  Beta  occ. eigenvalues --   -0.40894  -0.40235  -0.38886  -0.38459  -0.38162
  Beta  occ. eigenvalues --   -0.36757  -0.36417  -0.35990  -0.35186  -0.33735
  Beta  occ. eigenvalues --   -0.33284  -0.28769  -0.28244  -0.26908  -0.26558
  Beta  occ. eigenvalues --   -0.25766  -0.24521  -0.21474  -0.18031  -0.17438
  Beta virt. eigenvalues --   -0.05175  -0.04861  -0.03455   0.00240   0.01781
  Beta virt. eigenvalues --    0.02327   0.03050   0.03528   0.04301   0.05260
  Beta virt. eigenvalues --    0.06465   0.07593   0.07873   0.08559   0.09366

 Mulliken charges and spin densities:
               1          2
     1  O   -0.379687   0.010211
     2  O   -0.364855   0.923886
     3  C    0.027532   0.000024
     4  H    0.124008  -0.002192
     5  N   -0.389771  -0.000011
     6  C    0.117829   0.003394
     7  C   -0.171641  -0.000859
     8  C   -0.192084  -0.000070
     9  P    0.056203  -0.004132
    10  H    0.034984   0.000295
    11  C    0.016957  -0.000501
    12  C    0.015313   0.011464
    13  C    0.069666  -0.005171
    14  N   -0.337258   0.009298
    15  C   -0.109799   0.000561
    16  C    0.096342  -0.008770
    17  C   -0.043534   0.003867
    18  H    0.009537  -0.000113
    19  H    0.100914  -0.000261
    20  H    0.060587  -0.000086
    21  C   -0.049304   0.004085
    22  C    0.080653  -0.007189
    23  H    0.007316  -0.000033
    24  H    0.022223   0.000332
    25  O   -0.127719   0.021510
    26  H    0.054469  -0.000627
    27  H    0.100040   0.000157
    28  H    0.123798  -0.001879
    29  H    0.094518  -0.000001
    30  H    0.097496  -0.000006
    31  H    0.066377  -0.000091
    32  H    0.110176  -0.000067
    33  H    0.025536   0.000361
    34  H    0.119436  -0.001573
    35  H    0.081542  -0.000289
    36  H    0.039449  -0.000064
    37  H    0.100884  -0.000020
    38  Ru   0.152917   0.044352
    39  H    0.158948   0.000209
 Sum of Mulliken charges =  -0.00000   1.00000

 Dipole moment (field-independent basis, Debye):
    X=              0.6068    Y=              6.9574    Z=              2.3242  Tot=              7.3604
 Quadrupole moment (field-independent basis, Debye-Ang):
   XX=           -108.7014   YY=           -130.4722   ZZ=           -148.3322
   XY=             -1.8701   XZ=              0.2839   YZ=             -2.4436

  Exact polarizability: 244.484   8.155 241.472  -6.343   0.414 173.413
 Approx polarizability: 355.624  15.161 377.501 -26.782  -2.632 330.826

                      1                      2                      3
                      A                      A                      A
 Frequencies --     53.9814                63.9209                83.1625
 Red. masses --      7.0040                 3.3279                 8.2086
 Frc consts  --      0.0120                 0.0080                 0.0334
 IR Inten    --      0.0516                 0.4801                 0.4697

                      4                      5                      6
                      A                      A                      A
 Frequencies --     88.1089                96.1425               130.2679
 Red. masses --      4.0962                 5.5109                 1.7276
 Frc consts  --      0.0187                 0.0300                 0.0173
 IR Inten    --      1.7126                 4.1194                 1.2241

                      7                      8                      9
                      A                      A                      A
 Frequencies --    131.5374               152.5480               168.1197
 Red. masses --      3.7323                 1.6322                 4.6410
 Frc consts  --      0.0380                 0.0224                 0.0773
 IR Inten    --      1.3192                 1.9478                13.4024

                     10                     11                     12
                      A                      A                      A
 Frequencies --    184.5898               197.6143               210.3488
 Red. masses --      2.7709                 1.7641                 3.3054
 Frc consts  --      0.0556                 0.0406                 0.0862
 IR Inten    --      0.8271                 1.5737                 0.6736

                     13                     14                     15
                      A                      A                      A
 Frequencies --    213.3893               217.2943               222.7506
 Red. masses --      2.6716                 1.9040                 2.9195
 Frc consts  --      0.0717                 0.0530                 0.0853
 IR Inten    --      2.9810                 3.6988                 1.6688

                     16                     17                     18
                      A                      A                      A
 Frequencies --    233.7268               240.6208               247.5805
 Red. masses --      1.5573                 2.7404                 3.6339
 Frc consts  --      0.0501                 0.0935                 0.1312
 IR Inten    --     20.6161                13.7443                 5.6814

                     19                     20                     21
                      A                      A                      A
 Frequencies --    259.0628               261.2539               270.9991
 Red. masses --      2.8222                 1.3141                 4.4432
 Frc consts  --      0.1116                 0.0528                 0.1923
 IR Inten    --      0.3820                10.7149                 4.8843

                     22                     23                     24
                      A                      A                      A
 Frequencies --    279.2113               311.0387               317.5332
 Red. masses --      3.2141                 2.6077                 1.3566
 Frc consts  --      0.1476                 0.1486                 0.0806
 IR Inten    --     10.6699                 4.3545                 1.6465

                     25                     26                     27
                      A                      A                      A
 Frequencies --    360.0984               367.2946               382.1469
 Red. masses --      2.8285                 3.1398                 4.8619
 Frc consts  --      0.2161                 0.2496                 0.4183
 IR Inten    --      0.6817                 3.6675                 5.9864

                     28                     29                     30
                      A                      A                      A
 Frequencies --    413.4958               439.0399               469.6899
 Red. masses --      3.0859                 8.2131                 2.9374
 Frc consts  --      0.3109                 0.9328                 0.3818
 IR Inten    --      5.2152                 3.6051                28.1184

                     31                     32                     33
                      A                      A                      A
 Frequencies --    473.1618               488.7050               526.7319
 Red. masses --      3.0768                 3.8292                13.2276
 Frc consts  --      0.4058                 0.5388                 2.1623
 IR Inten    --      2.0141                 0.7606                37.1548

                     34                     35                     36
                      A                      A                      A
 Frequencies --    536.2055               548.0175               574.9935
 Red. masses --     11.1595                 3.1617                11.4330
 Frc consts  --      1.8904                 0.5594                 2.2271
 IR Inten    --     74.2048                 3.4361                 3.2266

                     37                     38                     39
                      A                      A                      A
 Frequencies --    613.9917               617.5273               653.9729
 Red. masses --      5.3833                11.9223                 5.2466
 Frc consts  --      1.1957                 2.6787                 1.3221
 IR Inten    --      1.2382                10.8548                 2.6071

                     40                     41                     42
                      A                      A                      A
 Frequencies --    692.7852               730.1869               746.6419
 Red. masses --      3.2569                 3.8209                 2.9477
 Frc consts  --      0.9210                 1.2003                 0.9682
 IR Inten    --      5.5106                18.5644                 8.4586

                     43                     44                     45
                      A                      A                      A
 Frequencies --    755.3135               770.6113               778.4047
 Red. masses --      2.8880                 2.9222                 1.4428
 Frc consts  --      0.9707                 1.0224                 0.5151
 IR Inten    --      8.6166                 0.4985                19.8741

                     46                     47                     48
                      A                      A                      A
 Frequencies --    804.8647               845.8238               881.4517
 Red. masses --      1.6715                 1.3542                 1.6565
 Frc consts  --      0.6380                 0.5708                 0.7583
 IR Inten    --      8.7578                 9.8551                42.1017

                     49                     50                     51
                      A                      A                      A
 Frequencies --    893.9042               899.0575               914.7876
 Red. masses --      1.1758                 2.2680                 1.4567
 Frc consts  --      0.5535                 1.0801                 0.7182
 IR Inten    --     71.7088                46.2723                42.1101

                     52                     53                     54
                      A                      A                      A
 Frequencies --    924.6608               958.8030               966.5638
 Red. masses --      1.6740                 1.4560                 2.1123
 Frc consts  --      0.8433                 0.7886                 1.1627
 IR Inten    --     13.8282                89.3422                23.0819

                     55                     56                     57
                      A                      A                      A
 Frequencies --   1000.4175              1014.1687              1045.7608
 Red. masses --      1.3217                 2.9805                 1.8721
 Frc consts  --      0.7793                 1.8062                 1.2062
 IR Inten    --      0.4863                 8.1958                11.0941

                     58                     59                     60
                      A                      A                      A
 Frequencies --   1054.3173              1061.1744              1111.3538
 Red. masses --      6.9365                 1.7024                 1.3982
 Frc consts  --      4.5429                 1.1295                 1.0175
 IR Inten    --      5.2886                12.4122                 1.2791

                     61                     62                     63
                      A                      A                      A
 Frequencies --   1112.1086              1138.6717              1174.7800
 Red. masses --      1.3839                 1.1694                 1.3549
 Frc consts  --      1.0084                 0.8933                 1.1018
 IR Inten    --      4.3411                 4.2088                 8.0466

                     64                     65                     66
                      A                      A                      A
 Frequencies --   1176.5239              1180.1367              1213.3655
 Red. masses --      1.1853                 1.3664                 2.0099
 Frc consts  --      0.9666                 1.1213                 1.7434
 IR Inten    --      2.6471                 1.7937                 1.6540

                     67                     68                     69
                      A                      A                      A
 Frequencies --   1244.5283              1282.4958              1285.2669
 Red. masses --      1.6663                 1.2450                 2.1435
 Frc consts  --      1.5206                 1.2065                 2.0862
 IR Inten    --      4.9026                24.1108                 0.6642

                     70                     71                     72
                      A                      A                      A
 Frequencies --   1298.0788              1300.0862              1329.2125
 Red. masses --      1.3017                 2.1620                 2.0907
 Frc consts  --      1.2923                 2.1530                 2.1764
 IR Inten    --     12.3406                 3.3025                 5.4026

                     73                     74                     75
                      A                      A                      A
 Frequencies --   1350.4185              1379.1262              1397.1126
 Red. masses --      4.5631                 1.4456                 1.0693
 Frc consts  --      4.9028                 1.6200                 1.2298
 IR Inten    --      1.0493                12.6626                 2.7028

                     76                     77                     78
                      A                      A                      A
 Frequencies --   1404.7265              1408.9884              1410.3327
 Red. masses --      1.2423                 1.1893                 1.1752
 Frc consts  --      1.4443                 1.3911                 1.3773
 IR Inten    --      6.3591                 4.1588                14.5813

                     79                     80                     81
                      A                      A                      A
 Frequencies --   1426.4070              1429.7012              1437.6945
 Red. masses --      1.0506                 1.0515                 1.1612
 Frc consts  --      1.2594                 1.2664                 1.4141
 IR Inten    --      9.2658                 6.9544                 5.4772

                     82                     83                     84
                      A                      A                      A
 Frequencies --   1438.5858              1439.9692              1455.0301
 Red. masses --      1.0940                 1.0731                 1.0927
 Frc consts  --      1.3339                 1.3110                 1.3630
 IR Inten    --     16.0643                 4.9837                 1.3500

                     85                     86                     87
                      A                      A                      A
 Frequencies --   1463.2078              1473.6711              1478.2745
 Red. masses --      2.5566                 1.0567                 1.0521
 Frc consts  --      3.2250                 1.3521                 1.3546
 IR Inten    --     28.9459                17.2571                18.5857

                     88                     89                     90
                      A                      A                      A
 Frequencies --   1517.7362              1643.6575              1677.6478
 Red. masses --      3.4881                 7.5782                 6.8923
 Frc consts  --      4.7340                12.0625                11.4293
 IR Inten    --     33.5513                19.6503                 2.1166

                     91                     92                     93
                      A                      A                      A
 Frequencies --   2019.5575              3009.5601              3013.8501
 Red. masses --     13.2241                 1.0471                 1.0476
 Frc consts  --     31.7781                 5.5878                 5.6064
 IR Inten    --    913.6984                21.6228               121.5583

                     94                     95                     96
                      A                      A                      A
 Frequencies --   3027.1475              3054.0520              3060.4937
 Red. masses --      1.0598                 1.0628                 1.0335
 Frc consts  --      5.7218                 5.8408                 5.7036
 IR Inten    --     72.3112                 2.3882                 6.5646

                     97                     98                     99
                      A                      A                      A
 Frequencies --   3063.4408              3092.9218              3123.8924
 Red. masses --      1.0329                 1.1030                 1.1006
 Frc consts  --      5.7114                 6.2168                 6.3283
 IR Inten    --     15.2177                12.5540                 7.0962

                    100                    101                    102
                      A                      A                      A
 Frequencies --   3126.3334              3150.5066              3167.0430
 Red. masses --      1.0886                 1.0903                 1.1044
 Frc consts  --      6.2686                 6.3759                 6.5267
 IR Inten    --     15.0695                 1.2541                 4.4917

                    103                    104                    105
                      A                      A                      A
 Frequencies --   3174.6728              3177.1797              3178.8090
 Red. masses --      1.1038                 1.1036                 1.1045
 Frc consts  --      6.5544                 6.5636                 6.5755
 IR Inten    --      5.0058                 0.5180                 5.3198

                    106                    107                    108
                      A                      A                      A
 Frequencies --   3190.6323              3191.0097              3216.7722
 Red. masses --      1.1052                 1.1041                 1.0870
 Frc consts  --      6.6287                 6.6240                 6.6269
 IR Inten    --      0.1116                 0.7352                 0.2822

                    109                    110                    111
                      A                      A                      A
 Frequencies --   3230.5366              3239.6493              3859.4065
 Red. masses --      1.0930                 1.0996                 1.0675
 Frc consts  --      6.7207                 6.7993                 9.3687
 IR Inten    --      4.1059                 4.5828                12.2455

 - Thermochemistry -
 -------------------
 Temperature   298.150 Kelvin.  Pressure   1.00000 Atm.
 Atom     1 has atomic number  8 and mass  15.99491

 Molecular mass:   373.02486 amu.
 Principal axes and moments of inertia in atomic units:
                           1         2         3
     Eigenvalues --  4760.308745065.363537167.49915
           X            0.96709  -0.25437   0.00539
           Y            0.25436   0.96711   0.00242
           Z           -0.00582  -0.00097   0.99998
 This molecule is an asymmetric top.
 Rotational symmetry number  1.
 Warning -- assumption of classical behavior for rotation
           may cause significant error
 Rotational temperatures (Kelvin)      0.01820     0.01710     0.01208
 Rotational constants (GHZ):           0.37912     0.35629     0.25180
 Zero-point vibrational energy     821152.3 (Joules/Mol)
                                  196.26010 (Kcal/Mol)
 Warning -- explicit consideration of  38 degrees of freedom as
           vibrations may cause significant error
 Vibrational temperatures:     77.67    91.97   119.65   126.77   138.33
          (Kelvin)            187.43   189.25   219.48   241.89   265.58
                              284.32   302.65   307.02   312.64   320.49
                              336.28   346.20   356.21   372.73   375.89
                              389.91   401.72   447.52   456.86   518.10
                              528.46   549.82   594.93   631.68   675.78
                              680.77   703.14   757.85   771.48   788.47
                              827.29   883.40   888.48   940.92   996.76
                             1050.58  1074.25  1086.73  1108.74  1119.95
                             1158.02  1216.95  1268.21  1286.13  1293.54
                             1316.18  1330.38  1379.50  1390.67  1439.38
                             1459.16  1504.62  1516.93  1526.79  1598.99
                             1600.08  1638.29  1690.25  1692.76  1697.95
                             1745.76  1790.60  1845.23  1849.21  1867.65
                             1870.53  1912.44  1942.95  1984.25  2010.13
                             2021.09  2027.22  2029.15  2052.28  2057.02
                             2068.52  2069.80  2071.79  2093.46  2105.23
                             2120.28  2126.91  2183.68  2364.86  2413.76
                             2905.69  4330.09  4336.26  4355.39  4394.10
                             4403.37  4407.61  4450.02  4494.58  4498.10
                             4532.88  4556.67  4567.65  4571.25  4573.60
                             4590.61  4591.15  4628.22  4648.02  4661.13
                             5552.83

 Zero-point correction=                           0.312760 (Hartree/Particle)
 Thermal correction to Energy=                    0.334621
 Thermal correction to Enthalpy=                  0.335565
 Thermal correction to Gibbs Free Energy=         0.263787
 Sum of electronic and zero-point Energies=          -1239.525145
 Sum of electronic and thermal Energies=             -1239.503285
 Sum of electronic and thermal Enthalpies=           -1239.502341
 Sum of electronic and thermal Free Energies=        -1239.574118

                     E (Thermal)             CV                S
                      KCal/Mol        Cal/Mol-Kelvin    Cal/Mol-Kelvin
 Total                  209.978             83.688            151.069
 Electronic               0.000              0.000              1.377
 Translational            0.889              2.981             43.642
 Rotational               0.889              2.981             33.513
 Vibrational            208.200             77.726             72.536
 Vibration     1          0.596              1.976              4.666
 Vibration     2          0.597              1.972              4.332
 Vibration     3          0.600              1.961              3.815
 Vibration     4          0.601              1.958              3.702
 Vibration     5          0.603              1.952              3.531
 Vibration     6          0.612              1.923              2.942
 Vibration     7          0.612              1.922              2.923
 Vibration     8          0.619              1.900              2.640
 Vibration     9          0.625              1.882              2.456
 Vibration    10          0.631              1.861              2.281
 Vibration    11          0.637              1.843              2.155
 Vibration    12          0.643              1.825              2.041
 Vibration    13          0.644              1.821              2.014
 Vibration    14          0.646              1.815              1.982
 Vibration    15          0.648              1.806              1.937
 Vibration    16          0.654              1.789              1.850
 Vibration    17          0.658              1.778              1.798
 Vibration    18          0.661              1.767              1.748
 Vibration    19          0.668              1.747              1.668
 Vibration    20          0.669              1.744              1.653
 Vibration    21          0.675              1.727              1.590
 Vibration    22          0.680              1.712              1.538
 Vibration    23          0.700              1.653              1.357
 Vibration    24          0.704              1.640              1.323
 Vibration    25          0.735              1.554              1.122
 Vibration    26          0.740              1.540              1.091
 Vibration    27          0.752              1.508              1.031
 Vibration    28          0.777              1.441              0.914
 Vibration    29          0.799              1.385              0.830
 Vibration    30          0.827              1.317              0.738
 Vibration    31          0.830              1.310              0.729
 Vibration    32          0.845              1.275              0.687
 Vibration    33          0.882              1.191              0.595
 Vibration    34          0.891              1.170              0.574
 Vibration    35          0.903              1.144              0.548
 Vibration    36          0.931              1.085              0.495
 Vibration    37          0.973              1.002              0.426
 Vibration    38          0.977              0.995              0.420

                           ! Non-Optimized Parameters !
 Normal termination of Gaussian 16 at Mon Jun 29 00:51:22 2020.
