 Gaussian 16, Revision A.03,
 Gaussian 16:  ES64L-G16RevA.03 25-Dec-2016

 ----------------------------------------------------------------------
 # genecp pbe1pbe EmpiricalDispersion=GD3BJ scrf=(SMD,solvent=water) td
 =nstates=25 geom=allcheck
 ----------------------------------------------------------------------

 Structure from the checkpoint file:  "/scratch/js1212.752394/GMe-Cis-Mono-D-0-GP-TD-SMD.chk"
 -------------------
 Title Card Required
 -------------------
 Charge =  0 Multiplicity = 2

                         Standard orientation:
 ---------------------------------------------------------------------
 Center     Atomic      Atomic             Coordinates (Angstroms)
 Number     Number       Type             X           Y           Z
 ---------------------------------------------------------------------
      1          8           0       -0.555049   -2.764231   -0.447231
      2          8           0        0.125082   -0.539537   -2.026692
      3          6           0        2.334943   -2.330257   -0.933396
      4          1           0        2.325324    0.000789   -1.749547
      5          7           0        2.034705   -1.177431   -0.078968
      6          6           0        2.562922    0.060563   -0.673759
      7          6           0       -2.660503    0.709134   -1.967051
      8          6           0       -3.682907   -0.222827    0.572539
      9         15           0       -2.136968    0.262992   -0.278674
     10          1           0        3.658167    0.139288   -0.547257
     11          6           0        2.573897   -1.375394    1.265276
     12          6           0       -0.477431   -1.057265    1.740300
     13          6           0        1.865056    1.292451   -0.168278
     14          7           0        0.549351    1.135508    0.081925
     15          6           0       -1.697293    1.886356    0.558148
     16          6           0       -0.243267    2.195175    0.348587
     17          6           0        2.460326    2.544807   -0.081122
     18          1           0        3.529615    2.651908   -0.267128
     19          1           0       -1.874745    1.706685    1.633692
     20          1           0       -2.336004    2.730555    0.255986
     21          6           0        0.298363    3.476825    0.413850
     22          6           0        1.665306    3.649768    0.215853
     23          1           0       -0.350157    4.327853    0.624476
     24          1           0        2.107982    4.645158    0.280139
     25          8           0       -0.729922   -1.229609    2.860758
     26          1           0       -3.434637    1.490459   -1.964580
     27          1           0       -3.041012   -0.201753   -2.451336
     28          1           0       -1.761030    1.014760   -2.518172
     29          1           0       -3.459781   -0.440941    1.626706
     30          1           0       -4.058111   -1.142728    0.100741
     31          1           0       -4.453658    0.559892    0.506186
     32          1           0        1.846600   -3.211363   -0.499362
     33          1           0        3.427186   -2.481616   -1.022509
     34          1           0        1.876268   -2.145844   -1.913274
     35          1           0        2.347497   -0.500015    1.890276
     36          1           0        3.670649   -1.523833    1.235296
     37          1           0        2.101481   -2.258691    1.713361
     38         44           0       -0.172044   -0.787483   -0.083911
     39          1           0       -1.302962   -3.071718    0.077432
 ---------------------------------------------------------------------

 SCF Done:  E(UPBE1PBE) =  -1239.87747020     A.U. after   36 cycles

 Excitation energies and oscillator strengths:

 Excited State   1:  2.009-A      0.2664 eV 4653.56 nm  f=0.0000  <S**2>=0.759
     73B -> 81B       -0.12594
     77B -> 81B        0.24399
     78B -> 81B       -0.38030
     79B -> 81B       -0.55276
     80B -> 81B        0.71134
     78B <- 81B       -0.12603
     79B <- 81B       -0.16496
     80B <- 81B        0.19553
 This state for optimization and/or second-order correction.
 Total Energy, E(TD-HF/TD-DFT) =  -1239.86767912
 Copying the excited state density for this state as the 1-particle RhoCI density.

 Excited State   2:  2.064-A      1.5428 eV  803.61 nm  f=0.0004  <S**2>=0.815
     72B -> 81B        0.17101
     74B -> 81B        0.11714
     78B -> 81B        0.12154
     79B -> 81B        0.69271
     80B -> 81B        0.64941

 Excited State   3:  2.019-A      2.0726 eV  598.20 nm  f=0.0024  <S**2>=0.770
     72B -> 81B        0.43721
     73B -> 81B       -0.10875
     74B -> 81B        0.44043
     75B -> 81B        0.54762
     76B -> 81B        0.15013
     77B -> 81B       -0.35874
     78B -> 81B        0.15098
     79B -> 81B       -0.27018

 Excited State   4:  2.099-A      2.5043 eV  495.09 nm  f=0.0027  <S**2>=0.852
     71B -> 81B       -0.13402
     73B -> 81B        0.13766
     74B -> 81B       -0.25033
     75B -> 81B       -0.22677
     77B -> 81B       -0.27641
     78B -> 81B        0.70030
     79B -> 81B       -0.37866
     80B -> 81B        0.29693

 Excited State   5:  3.440-A      2.9823 eV  415.74 nm  f=0.0005  <S**2>=2.708
     81A -> 82A       -0.52115
     81A -> 84A        0.20413
     81A -> 85A       -0.21355
     76B -> 83B        0.12886
     80B -> 82B        0.63713
     80B -> 84B       -0.11716
     80B -> 85B        0.20229
     80B -> 86B        0.10841

 Excited State   6:  3.413-A      3.0592 eV  405.28 nm  f=0.0009  <S**2>=2.662
     80A -> 84A       -0.16809
     80A -> 85A        0.14948
     80A -> 88A        0.10376
     81A -> 82A        0.23131
     81A -> 84A        0.38136
     81A -> 85A       -0.35512
     81A -> 88A       -0.23748
     79B -> 84B       -0.13952
     79B -> 85B        0.23058
     80B -> 82B       -0.32954
     80B -> 84B       -0.21185
     80B -> 85B        0.32965
     80B -> 87B       -0.16316
     80B -> 90B       -0.12443

 Excited State   7:  2.087-A      3.1422 eV  394.58 nm  f=0.0293  <S**2>=0.838
     81A -> 82A        0.27048
     75B -> 81B        0.34224
     76B -> 81B       -0.26858
     77B -> 81B        0.64459
     78B -> 81B        0.44656
     80B -> 82B        0.23850

 Excited State   8:  2.143-A      3.4465 eV  359.74 nm  f=0.0717  <S**2>=0.898
     81A -> 82A        0.69248
     75B -> 81B       -0.11654
     77B -> 81B       -0.23966
     78B -> 81B       -0.19296
     80B -> 82B        0.57273
     80B -> 85B        0.11194

 Excited State   9:  3.353-A      3.5249 eV  351.74 nm  f=0.0020  <S**2>=2.560
     80A -> 82A        0.13967
     80A -> 84A       -0.34052
     80A -> 85A        0.36793
     80A -> 88A        0.12979
     81A -> 84A       -0.18678
     81A -> 85A        0.19781
     77B -> 81B       -0.10520
     79B -> 82B        0.42862
     79B -> 84B       -0.20645
     79B -> 85B        0.37319
     79B -> 86B        0.15345
     79B -> 87B       -0.12345
     79B -> 90B       -0.10182
     80B -> 82B        0.14234
     80B -> 84B        0.14857
     80B -> 85B       -0.23243

 Excited State  10:  3.442-A      3.5651 eV  347.78 nm  f=0.0002  <S**2>=2.711
     80A -> 85A        0.11455
     80A -> 86A       -0.18395
     81A -> 84A        0.16466
     81A -> 85A        0.38952
     81A -> 86A       -0.32900
     81A -> 90A        0.14944
     81A -> 91A       -0.15393
     79B -> 85B        0.11286
     79B -> 86B       -0.10812
     80B -> 83B        0.12799
     80B -> 84B       -0.35226
     80B -> 85B       -0.35987
     80B -> 86B        0.36437
     80B -> 90B       -0.17984
     80B -> 91B        0.16155

 Excited State  11:  2.550-A      3.5908 eV  345.28 nm  f=0.0043  <S**2>=1.376
     80A -> 84A        0.24584
     80A -> 85A       -0.22422
     80A -> 88A       -0.13772
     81A -> 84A       -0.24840
     81A -> 85A        0.20680
     81A -> 88A        0.13168
     77B -> 81B        0.11817
     79B -> 82B        0.57868
     80B -> 84B       -0.28569
     80B -> 85B        0.38476
     80B -> 86B        0.14937
     80B -> 87B       -0.17145
     80B -> 90B       -0.13258

 Excited State  12:  2.861-A      3.6205 eV  342.46 nm  f=0.0029  <S**2>=1.797
     80A -> 82A        0.22695
     81A -> 84A        0.33772
     81A -> 85A       -0.27070
     81A -> 86A       -0.14152
     81A -> 90A        0.10489
     79B -> 82B        0.57817
     79B -> 84B        0.22214
     79B -> 85B       -0.23134
     79B -> 86B       -0.13030
     79B -> 87B        0.14098
     79B -> 90B        0.13091
     80B -> 84B        0.11119
     80B -> 85B       -0.25668
     80B -> 87B        0.14229

 Excited State  13:  2.699-A      3.7070 eV  334.46 nm  f=0.0033  <S**2>=1.571
     76A -> 83A        0.11311
     77A -> 83A       -0.16043
     78A -> 83A        0.12879
     80A -> 82A        0.69529
     81A -> 82A       -0.11902
     81A -> 84A       -0.10019
     81A -> 88A        0.12683
     76B -> 83B       -0.20281
     78B -> 82B       -0.10252
     79B -> 82B       -0.32322
     80B -> 82B        0.13869
     80B -> 83B        0.28292
     80B -> 85B        0.11153
     80B -> 86B        0.11073

 Excited State  14:  3.228-A      3.7541 eV  330.26 nm  f=0.0013  <S**2>=2.356
     80A -> 82A       -0.44221
     81A -> 83A       -0.31182
     81A -> 85A       -0.19036
     81A -> 87A       -0.12214
     81A -> 88A        0.15493
     81A -> 91A        0.16640
     80B -> 83B        0.64586
     80B -> 84B        0.10795
     80B -> 85B        0.10985
     80B -> 87B        0.15482
     80B -> 91B       -0.14844

 Excited State  15:  3.173-A      3.8373 eV  323.10 nm  f=0.0009  <S**2>=2.268
     76A -> 83A       -0.12757
     77A -> 82A        0.15530
     77A -> 83A        0.19997
     78A -> 83A       -0.14512
     80A -> 82A        0.30028
     80A -> 86A        0.11432
     81A -> 85A        0.16182
     81A -> 86A        0.10943
     81A -> 87A        0.12211
     81A -> 88A       -0.18700
     81A -> 91A       -0.13539
     74B -> 81B       -0.12227
     75B -> 81B        0.10548
     76B -> 81B       -0.20366
     76B -> 82B        0.11113
     76B -> 83B        0.24896
     77B -> 81B       -0.13965
     77B -> 83B        0.14164
     79B -> 85B       -0.13772
     80B -> 83B        0.49654
     80B -> 86B       -0.13911
     80B -> 87B       -0.15176
     80B -> 89B        0.10405

 Excited State  16:  2.662-A      3.8787 eV  319.66 nm  f=0.0011  <S**2>=1.521
     77A -> 83A       -0.12483
     78A -> 83A        0.10916
     80A -> 82A       -0.16414
     81A -> 82A       -0.14208
     81A -> 83A        0.30727
     81A -> 85A        0.15670
     81A -> 86A        0.10847
     81A -> 87A        0.10908
     81A -> 88A       -0.23426
     81A -> 91A       -0.14669
     74B -> 81B        0.32309
     75B -> 81B       -0.29203
     76B -> 81B        0.31101
     76B -> 83B       -0.16673
     77B -> 81B        0.22303
     79B -> 85B       -0.16160
     80B -> 83B        0.36078
     80B -> 85B       -0.10009
     80B -> 86B       -0.13230
     80B -> 89B        0.10763

 Excited State  17:  2.537-A      3.9093 eV  317.15 nm  f=0.0057  <S**2>=1.359
     76A -> 83A       -0.10823
     77A -> 83A        0.17123
     78A -> 83A       -0.13971
     80A -> 82A        0.20944
     81A -> 82A        0.15917
     81A -> 83A       -0.31848
     81A -> 85A       -0.10674
     74B -> 81B        0.51063
     75B -> 81B       -0.42471
     76B -> 81B        0.21529
     76B -> 83B        0.23076
     77B -> 81B        0.22699
     77B -> 83B        0.11263
     78B -> 82B        0.10021
     80B -> 83B       -0.15871

 Excited State  18:  2.821-A      3.9270 eV  315.72 nm  f=0.0005  <S**2>=1.740
     76A -> 83A       -0.11201
     77A -> 83A        0.12507
     80A -> 82A        0.10662
     80A -> 85A        0.10760
     80A -> 86A       -0.11014
     81A -> 82A        0.11678
     81A -> 83A        0.78333
     81A -> 85A       -0.15760
     81A -> 88A        0.15057
     76B -> 83B        0.16561
     80B -> 83B        0.18410
     80B -> 86B        0.14166
     80B -> 87B        0.11776
     80B -> 89B       -0.10504

 Excited State  19:  2.112-A      4.0443 eV  306.57 nm  f=0.0071  <S**2>=0.865
     80A -> 84A       -0.32407
     80A -> 85A        0.46381
     80A -> 87A       -0.14388
     81A -> 85A        0.26365
     79B -> 84B        0.28427
     79B -> 85B       -0.36075
     79B -> 86B       -0.15846
     79B -> 87B        0.19755
     80B -> 85B        0.39551
     80B -> 86B        0.10465

 Excited State  20:  2.172-A      4.1272 eV  300.40 nm  f=0.0059  <S**2>=0.929
     79A -> 85A        0.13018
     80A -> 84A        0.12538
     80A -> 85A       -0.18743
     81A -> 84A        0.31060
     81A -> 85A        0.40403
     81A -> 86A       -0.21599
     81A -> 88A       -0.16046
     81A -> 90A        0.10565
     81A -> 91A       -0.12239
     79B -> 83B       -0.11950
     79B -> 85B        0.18147
     79B -> 87B       -0.13338
     80B -> 84B        0.42886
     80B -> 85B        0.32550
     80B -> 87B        0.14940
     80B -> 88B       -0.10845
     80B -> 89B       -0.12800
     80B -> 90B        0.17858
     80B -> 91B       -0.17900

 Excited State  21:  2.361-A      4.1407 eV  299.43 nm  f=0.0033  <S**2>=1.143
     78A -> 82A        0.12033
     74B -> 81B       -0.35481
     75B -> 81B        0.28168
     76B -> 81B        0.75470
     76B -> 82B       -0.15895
     77B -> 81B        0.19869
     79B -> 83B        0.10424

 Excited State  22:  3.390-A      4.1814 eV  296.52 nm  f=0.0001  <S**2>=2.623
     80A -> 84A        0.24057
     80A -> 85A        0.32016
     80A -> 86A       -0.17045
     80A -> 87A        0.11322
     80A -> 88A       -0.17785
     80A -> 90A        0.10283
     80A -> 91A       -0.23987
     81A -> 86A        0.17304
     81A -> 88A       -0.21076
     79B -> 83B       -0.12065
     79B -> 84B        0.31540
     79B -> 85B        0.44280
     79B -> 86B       -0.18890
     79B -> 90B        0.15096
     79B -> 91B       -0.22172
     80B -> 84B        0.10500
     80B -> 86B       -0.17678
     80B -> 89B        0.12490

 Excited State  23:  3.230-A      4.1893 eV  295.95 nm  f=0.0006  <S**2>=2.359
     76A -> 82A       -0.22098
     77A -> 82A        0.34833
     78A -> 82A       -0.26350
     79A -> 82A       -0.35884
     80A -> 83A       -0.16313
     81A -> 83A        0.13012
     74B -> 81B       -0.11071
     76B -> 81B        0.27350
     76B -> 82B        0.42808
     77B -> 82B        0.24178
     79B -> 83B       -0.35530
     80B -> 83B       -0.11958

 Excited State  24:  3.103-A      4.2326 eV  292.93 nm  f=0.0001  <S**2>=2.156
     76A -> 82A       -0.12599
     77A -> 82A        0.17189
     78A -> 82A       -0.16718
     79A -> 82A       -0.18493
     80A -> 87A        0.10112
     80A -> 88A       -0.12142
     81A -> 87A       -0.10262
     76B -> 82B        0.22452
     77B -> 82B        0.13605
     79B -> 83B        0.75245
     79B -> 86B        0.13513
     79B -> 87B        0.11342
     80B -> 87B        0.10717

 Excited State  25:  2.991-A      4.2804 eV  289.65 nm  f=0.0029  <S**2>=1.986
     79A -> 82A        0.15244
     79A -> 84A       -0.35660
     79A -> 85A        0.56209
     79A -> 88A        0.10052
     80A -> 83A       -0.10732
     80A -> 85A        0.10585
     81A -> 86A       -0.16257
     81A -> 87A        0.23820
     81A -> 88A        0.29274
     81A -> 89A       -0.14259
     72B -> 81B       -0.11344
     76B -> 82B        0.10186
     77B -> 85B       -0.11426
     78B -> 85B       -0.13445
     80B -> 87B       -0.22366
     80B -> 90B        0.12935
     80B -> 91B        0.12550

 The electronic state is 2-A.
 Alpha  occ. eigenvalues --  -77.26257 -19.27635 -19.19292 -19.15581 -14.44640
 Alpha  occ. eigenvalues --  -14.44379 -10.32881 -10.29758 -10.29445 -10.27099
 Alpha  occ. eigenvalues --  -10.26004 -10.25232 -10.25074 -10.25037 -10.24713
 Alpha  occ. eigenvalues --  -10.24630 -10.23239 -10.23055  -6.64294  -4.77922
 Alpha  occ. eigenvalues --   -4.77871  -4.77631  -3.05330  -1.89311  -1.88213
 Alpha  occ. eigenvalues --   -1.87616  -1.14111  -1.01143  -0.97626  -0.92933
 Alpha  occ. eigenvalues --   -0.90800  -0.84279  -0.83969  -0.78881  -0.74957
 Alpha  occ. eigenvalues --   -0.73253  -0.71986  -0.71298  -0.65854  -0.64406
 Alpha  occ. eigenvalues --   -0.61322  -0.57880  -0.56690  -0.53803  -0.52076
 Alpha  occ. eigenvalues --   -0.50621  -0.49550  -0.48812  -0.47295  -0.46502
 Alpha  occ. eigenvalues --   -0.46216  -0.45595  -0.45220  -0.44791  -0.43810
 Alpha  occ. eigenvalues --   -0.43533  -0.43264  -0.42240  -0.42029  -0.41372
 Alpha  occ. eigenvalues --   -0.40224  -0.39911  -0.39441  -0.38297  -0.37804
 Alpha  occ. eigenvalues --   -0.37606  -0.36111  -0.35941  -0.35059  -0.34546
 Alpha  occ. eigenvalues --   -0.33450  -0.33148  -0.31694  -0.29986  -0.29006
 Alpha  occ. eigenvalues --   -0.27846  -0.27139  -0.26870  -0.24104  -0.21792
 Alpha  occ. eigenvalues --   -0.19972
 Alpha virt. eigenvalues --   -0.03959  -0.02031   0.00094   0.00526   0.01535
 Alpha virt. eigenvalues --    0.02312   0.02757   0.03144   0.03700   0.06250
 Alpha virt. eigenvalues --    0.08127   0.09109   0.09789   0.10552   0.11150

  Beta  occ. eigenvalues --  -77.26250 -19.27571 -19.17030 -19.15588 -14.44639
  Beta  occ. eigenvalues --  -14.44336 -10.32877 -10.29762 -10.29450 -10.27077
  Beta  occ. eigenvalues --  -10.26008 -10.25232 -10.25072 -10.25035 -10.24714
  Beta  occ. eigenvalues --  -10.24623 -10.23240 -10.23050  -6.64284  -4.77916
  Beta  occ. eigenvalues --   -4.77864  -4.77616  -3.04931  -1.88792  -1.87771
  Beta  occ. eigenvalues --   -1.87225  -1.14007  -1.01125  -0.97558  -0.92929
  Beta  occ. eigenvalues --   -0.84312  -0.84157  -0.83701  -0.78835  -0.74925
  Beta  occ. eigenvalues --   -0.73216  -0.71972  -0.71279  -0.65847  -0.64401
  Beta  occ. eigenvalues --   -0.61268  -0.57727  -0.56637  -0.53782  -0.52012
  Beta  occ. eigenvalues --   -0.50474  -0.49497  -0.48717  -0.47196  -0.46370
  Beta  occ. eigenvalues --   -0.46041  -0.45420  -0.45112  -0.44728  -0.43687
  Beta  occ. eigenvalues --   -0.43413  -0.43244  -0.42166  -0.41954  -0.41312
  Beta  occ. eigenvalues --   -0.40202  -0.39891  -0.39427  -0.38187  -0.37587
  Beta  occ. eigenvalues --   -0.37500  -0.36030  -0.35433  -0.34914  -0.33600
  Beta  occ. eigenvalues --   -0.32967  -0.30606  -0.29697  -0.28353  -0.27983
  Beta  occ. eigenvalues --   -0.27318  -0.26298  -0.25471  -0.21197  -0.19582
  Beta virt. eigenvalues --   -0.08695  -0.03934  -0.02023   0.00206   0.01027
  Beta virt. eigenvalues --    0.01651   0.02488   0.03000   0.03590   0.03804
  Beta virt. eigenvalues --    0.06514   0.08189   0.09202   0.09823   0.10588

 Mulliken charges and spin densities:
               1          2
     1  O   -0.488390  -0.001194
     2  O   -0.456098   0.876963
     3  C    0.029868   0.005547
     4  H    0.115520  -0.000185
     5  N   -0.396912   0.013086
     6  C    0.130800   0.012633
     7  C   -0.187941   0.006364
     8  C   -0.195094  -0.000427
     9  P    0.072690   0.007034
    10  H    0.075582  -0.000828
    11  C    0.007759  -0.001197
    12  C    0.054332   0.010774
    13  C    0.062860  -0.003712
    14  N   -0.332643   0.000620
    15  C   -0.088442  -0.000502
    16  C    0.086392  -0.001496
    17  C   -0.044357   0.001693
    18  H    0.037684  -0.000087
    19  H    0.123019  -0.000021
    20  H    0.092661  -0.000164
    21  C   -0.048587   0.001961
    22  C    0.082624  -0.002331
    23  H    0.036351  -0.000087
    24  H    0.049811   0.000108
    25  O   -0.152463   0.022489
    26  H    0.093710  -0.001631
    27  H    0.108542  -0.000403
    28  H    0.107481  -0.000345
    29  H    0.103888   0.000031
    30  H    0.105197   0.000088
    31  H    0.092979  -0.000065
    32  H    0.095907   0.000341
    33  H    0.062850  -0.000214
    34  H    0.099441  -0.000887
    35  H    0.101688   0.000022
    36  H    0.066183  -0.000307
    37  H    0.103898   0.000690
    38  Ru  -0.000290   0.055909
    39  H    0.191500  -0.000274
 Sum of Mulliken charges =  -0.00000   1.00000

 Dipole moment (field-independent basis, Debye):
    X=              1.0907    Y=             11.3414    Z=              5.1024  Tot=             12.4840
 Quadrupole moment (field-independent basis, Debye-Ang):
   XX=            -93.4355   YY=           -128.3286   ZZ=           -151.7524
   XY=             -4.2285   XZ=              0.1389   YZ=             -5.0157

 Normal termination of Gaussian 16 at Mon Jun 29 15:25:06 2020.
