 Gaussian 16, Revision A.03,
 Gaussian 16:  ES64L-G16RevA.03 25-Dec-2016

 ------------------------------------------------------------------
 # opt=ModRedundant genecp pbe1pbe EmpiricalDispersion=GD3BJ NoSymm
 ------------------------------------------------------------------

 -------------------
 Title Card Required
 -------------------
 Symbolic Z-matrix:
 Charge =  0 Multiplicity = 3

 SCF Done:  E(UPBE1PBE) =  -1554.48524575     A.U. after   40 cycles
 SCF Done:  E(UPBE1PBE) =  -1554.49764886     A.U. after   22 cycles
 SCF Done:  E(UPBE1PBE) =  -1554.32994272     A.U. after   22 cycles
 SCF Done:  E(UPBE1PBE) =  -1554.50047059     A.U. after   20 cycles
 SCF Done:  E(UPBE1PBE) =  -1554.50331486     A.U. after   15 cycles
 SCF Done:  E(UPBE1PBE) =  -1554.50798719     A.U. after   18 cycles
 SCF Done:  E(UPBE1PBE) =  -1554.51285038     A.U. after   19 cycles
 SCF Done:  E(UPBE1PBE) =  -1554.52192293     A.U. after   19 cycles
 SCF Done:  E(UPBE1PBE) =  -1554.52516254     A.U. after   18 cycles
 SCF Done:  E(UPBE1PBE) =  -1554.52699808     A.U. after   17 cycles
 SCF Done:  E(UPBE1PBE) =  -1554.52987908     A.U. after   15 cycles
 SCF Done:  E(UPBE1PBE) =  -1554.52989790     A.U. after   14 cycles
 SCF Done:  E(UPBE1PBE) =  -1554.52990612     A.U. after   13 cycles
 SCF Done:  E(UPBE1PBE) =  -1554.52991287     A.U. after   13 cycles
 SCF Done:  E(UPBE1PBE) =  -1554.52991571     A.U. after   12 cycles
 SCF Done:  E(UPBE1PBE) =  -1554.52991693     A.U. after   12 cycles
 SCF Done:  E(UPBE1PBE) =  -1554.52991795     A.U. after   12 cycles
 SCF Done:  E(UPBE1PBE) =  -1554.52991834     A.U. after   10 cycles
 SCF Done:  E(UPBE1PBE) =  -1554.52991846     A.U. after   11 cycles
 SCF Done:  E(UPBE1PBE) =  -1554.52991852     A.U. after   10 cycles
 Optimization completed.
    -- Stationary point found.

                          Input orientation:
 ---------------------------------------------------------------------
 Center     Atomic      Atomic             Coordinates (Angstroms)
 Number     Number       Type             X           Y           Z
 ---------------------------------------------------------------------
      1          7           0       -0.778866    1.321196   -0.321781
      2          6           0       -1.944310    1.882658    0.177849
      3          6           0        0.206044    2.185338   -0.770396
      4          6           0       -2.179338    3.235401    0.140390
      5          6           0       -1.201569    4.116477   -0.367078
      6          6           0        0.016820    3.546027   -0.802399
      7          6           0       -2.832582    0.891074    0.850208
      8          1           0       -3.128272    3.615898    0.525560
      9          1           0       -1.367367    5.192003   -0.399995
     10          1           0        0.818450    4.178444   -1.190928
     11          6           0        1.451579    1.502163   -1.235325
     12          7           0       -2.726778   -0.451652    0.225208
     13          1           0       -3.879132    1.238147    0.871868
     14          1           0       -2.515227    0.763767    1.900171
     15          1           0        1.309590    1.116816   -2.262800
     16         15           0        1.758152   -0.024508   -0.208443
     17          1           0        2.314064    2.183753   -1.252030
     18         44           0       -0.474993   -0.649821    0.082476
     19          6           0       -3.315659   -0.428502   -1.138485
     20          6           0        3.009918   -0.990528   -1.291223
     21          6           0       -3.409978   -1.423870    1.112108
     22          6           0        2.660547    0.620304    1.347039
     23          6           0        2.237214   -1.677747   -2.419751
     24          6           0        3.689426   -2.079077   -0.460157
     25          6           0        4.060528   -0.096084   -1.956615
     26          6           0        1.788642    1.734526    1.942041
     27          6           0        4.034287    1.225727    1.054335
     28          6           0        2.828997   -0.504132    2.373802
     29          6           0       -0.387912   -0.660822    1.880665
     30          8           0       -0.441760   -0.724898    3.047194
     31          1           0       -2.757591    0.335929   -1.696274
     32          6           0       -4.808669   -0.152121   -1.219176
     33          1           0       -3.068227   -1.384848   -1.611393
     34          1           0       -2.861097   -1.415432    2.064514
     35          6           0       -3.478097   -2.835284    0.569179
     36          1           0       -4.426710   -1.045974    1.332860
     37          8           0       -0.564250   -2.686530   -0.510018
     38          1           0        0.334432   -3.043174   -0.587511
     39          8           0       -0.836613   -1.497525   -1.872852
     40          1           0       -0.044051   -1.623497   -2.410458
     41          1           0       -2.483016   -3.184135    0.260728
     42          1           0       -4.157889   -2.917910   -0.291865
     43          1           0       -3.863514   -3.499489    1.357195
     44          1           0       -5.103379   -0.162537   -2.279279
     45          1           0       -5.085437    0.834530   -0.819328
     46          1           0       -5.413436   -0.915042   -0.706327
     47          1           0        2.952566   -2.178909   -3.092076
     48          1           0        1.668973   -0.960054   -3.032142
     49          1           0        1.556076   -2.451797   -2.039144
     50          1           0        4.231512   -2.766318   -1.131006
     51          1           0        2.959630   -2.673505    0.112251
     52          1           0        4.422021   -1.666525    0.245844
     53          1           0        4.728031   -0.730183   -2.564433
     54          1           0        4.686024    0.447989   -1.241886
     55          1           0        3.601541    0.634604   -2.638160
     56          1           0        4.778893    0.470177    0.769238
     57          1           0        4.402200    1.709298    1.974362
     58          1           0        3.997985    2.001036    0.274756
     59          1           0        3.575321   -1.245188    2.061328
     60          1           0        1.891709   -1.030387    2.585752
     61          1           0        3.180198   -0.064058    3.321783
     62          1           0        2.219647    2.028766    2.912911
     63          1           0        0.751918    1.423172    2.114580
     64          1           0        1.764269    2.623338    1.296958
 ---------------------------------------------------------------------

 Alpha  occ. eigenvalues --  -77.26532 -19.24858 -19.21639 -19.21089 -14.43851
 Alpha  occ. eigenvalues --  -14.39650 -10.30940 -10.27723 -10.26803 -10.26118
 Alpha  occ. eigenvalues --  -10.25763 -10.25424 -10.25123 -10.25003 -10.24725
 Alpha  occ. eigenvalues --  -10.24633 -10.24591 -10.24274 -10.23907 -10.22737
 Alpha  occ. eigenvalues --  -10.22410 -10.22177 -10.21603 -10.21580 -10.21051
 Alpha  occ. eigenvalues --  -10.20665  -6.64425  -4.78052  -4.78020  -4.77735
 Alpha  occ. eigenvalues --   -3.04656  -1.88817  -1.87310  -1.87064  -1.11292
 Alpha  occ. eigenvalues --   -1.03058  -0.97705  -0.95082  -0.94657  -0.86937
 Alpha  occ. eigenvalues --   -0.84526  -0.81596  -0.79742  -0.77841  -0.76711
 Alpha  occ. eigenvalues --   -0.73560  -0.72984  -0.72708  -0.71336  -0.70703
 Alpha  occ. eigenvalues --   -0.69323  -0.65769  -0.65195  -0.61466  -0.60132
 Alpha  occ. eigenvalues --   -0.58049  -0.57334  -0.56017  -0.54485  -0.52175
 Alpha  occ. eigenvalues --   -0.51285  -0.50892  -0.50312  -0.49527  -0.48831
 Alpha  occ. eigenvalues --   -0.47954  -0.47415  -0.46781  -0.46382  -0.45952
 Alpha  occ. eigenvalues --   -0.45353  -0.45105  -0.44377  -0.44209  -0.43799
 Alpha  occ. eigenvalues --   -0.43190  -0.42772  -0.42289  -0.42267  -0.41543
 Alpha  occ. eigenvalues --   -0.41331  -0.41149  -0.40822  -0.40336  -0.39975
 Alpha  occ. eigenvalues --   -0.39660  -0.39200  -0.39093  -0.38429  -0.37694
 Alpha  occ. eigenvalues --   -0.37579  -0.37450  -0.37144  -0.36573  -0.36293
 Alpha  occ. eigenvalues --   -0.35481  -0.35159  -0.34817  -0.34458  -0.34064
 Alpha  occ. eigenvalues --   -0.33886  -0.33522  -0.32710  -0.32388  -0.31373
 Alpha  occ. eigenvalues --   -0.30012  -0.28657  -0.27475  -0.25315  -0.24515
 Alpha  occ. eigenvalues --   -0.22954  -0.21789  -0.21734  -0.09355
 Alpha virt. eigenvalues --   -0.00937  -0.00322   0.00583   0.01280   0.02309
 Alpha virt. eigenvalues --    0.03139   0.03472   0.03938   0.05041   0.05664
 Alpha virt. eigenvalues --    0.06814   0.07442   0.08035   0.08452   0.08698

  Beta  occ. eigenvalues --  -77.26530 -19.24837 -19.19935 -19.19281 -14.43832
  Beta  occ. eigenvalues --  -14.39178 -10.30930 -10.27724 -10.26796 -10.26150
  Beta  occ. eigenvalues --  -10.25762 -10.25124 -10.25118 -10.25028 -10.24633
  Beta  occ. eigenvalues --  -10.24591 -10.24384 -10.24274 -10.23908 -10.22734
  Beta  occ. eigenvalues --  -10.22409 -10.22171 -10.21774 -10.21724 -10.21048
  Beta  occ. eigenvalues --  -10.20025  -6.64421  -4.78043  -4.78018  -4.77734
  Beta  occ. eigenvalues --   -3.04260  -1.88387  -1.87039  -1.86424  -1.11243
  Beta  occ. eigenvalues --   -0.98914  -0.97470  -0.94035  -0.90895  -0.86919
  Beta  occ. eigenvalues --   -0.84511  -0.81186  -0.79060  -0.77825  -0.76599
  Beta  occ. eigenvalues --   -0.73440  -0.72973  -0.72662  -0.71333  -0.70690
  Beta  occ. eigenvalues --   -0.69220  -0.65658  -0.65130  -0.60601  -0.59944
  Beta  occ. eigenvalues --   -0.58034  -0.57223  -0.55899  -0.54385  -0.51629
  Beta  occ. eigenvalues --   -0.51003  -0.50696  -0.49785  -0.49138  -0.48423
  Beta  occ. eigenvalues --   -0.47721  -0.47201  -0.46676  -0.46149  -0.45753
  Beta  occ. eigenvalues --   -0.45240  -0.44794  -0.44184  -0.43799  -0.43521
  Beta  occ. eigenvalues --   -0.42829  -0.42594  -0.42172  -0.41905  -0.41176
  Beta  occ. eigenvalues --   -0.41011  -0.40691  -0.40257  -0.40099  -0.39431
  Beta  occ. eigenvalues --   -0.39200  -0.38806  -0.38651  -0.37641  -0.37490
  Beta  occ. eigenvalues --   -0.37302  -0.36784  -0.36625  -0.35766  -0.35282
  Beta  occ. eigenvalues --   -0.34878  -0.34710  -0.34508  -0.34111  -0.33769
  Beta  occ. eigenvalues --   -0.33000  -0.32694  -0.32353  -0.31250  -0.30571
  Beta  occ. eigenvalues --   -0.28226  -0.27370  -0.26373  -0.24889  -0.23518
  Beta  occ. eigenvalues --   -0.21518  -0.20608
  Beta virt. eigenvalues --   -0.04254  -0.01209  -0.00282   0.00294   0.01694
  Beta virt. eigenvalues --    0.01961   0.02575   0.03317   0.03815   0.04355
  Beta virt. eigenvalues --    0.05420   0.05843   0.07050   0.07543   0.08119

 Mulliken charges and spin densities:
               1          2
     1  N   -0.422319   0.187730
     2  C    0.040250   0.218457
     3  C    0.058793   0.190816
     4  C   -0.055862  -0.122290
     5  C    0.002540   0.432180
     6  C   -0.052266  -0.105299
     7  C    0.098577  -0.014031
     8  H   -0.018691   0.003976
     9  H   -0.015401  -0.022308
    10  H   -0.021662   0.003643
    11  C   -0.088524  -0.015827
    12  N   -0.391688   0.005653
    13  H    0.038911   0.000851
    14  H    0.085825   0.014128
    15  H    0.093998   0.012864
    16  P    0.226790   0.000448
    17  H    0.059262   0.000107
    18  Ru   0.121802   0.131466
    19  C   -0.029969  -0.001177
    20  C   -0.471791  -0.000517
    21  C   -0.009140  -0.000184
    22  C   -0.470740   0.002523
    23  C   -0.013962  -0.000855
    24  C   -0.002486   0.000304
    25  C    0.010680   0.000094
    26  C   -0.003504   0.000721
    27  C    0.013261  -0.000237
    28  C   -0.005552   0.000999
    29  C   -0.037289   0.008723
    30  O   -0.141961   0.005271
    31  H    0.115818  -0.001343
    32  C   -0.067118   0.000189
    33  H    0.118360  -0.000940
    34  H    0.073475  -0.000066
    35  C   -0.102481   0.001208
    36  H    0.031794   0.000342
    37  O   -0.262211   0.516043
    38  H    0.195906  -0.006170
    39  O   -0.250388   0.563719
    40  H    0.176200  -0.010552
    41  H    0.138786  -0.002493
    42  H    0.045154   0.000058
    43  H    0.044396   0.000199
    44  H    0.055543  -0.000103
    45  H    0.052047   0.000503
    46  H    0.049422   0.000448
    47  H    0.049853   0.000098
    48  H    0.062288   0.001328
    49  H    0.048108  -0.003108
    50  H    0.044640  -0.000008
    51  H    0.071579  -0.000300
    52  H    0.055616  -0.000023
    53  H    0.040228  -0.000062
    54  H    0.038321  -0.000030
    55  H    0.050077   0.000124
    56  H    0.047137   0.000034
    57  H    0.044682   0.000106
    58  H    0.046184   0.000081
    59  H    0.031048  -0.000075
    60  H    0.098363  -0.000078
    61  H    0.042982   0.000063
    62  H    0.038753   0.000596
    63  H    0.119043  -0.000142
    64  H    0.058512   0.002127
 Sum of Mulliken charges =  -0.00000   2.00000

 Dipole moment (field-independent basis, Debye):
    X=              3.5213    Y=             -0.4192    Z=             -1.5031  Tot=              3.8516
 Quadrupole moment (field-independent basis, Debye-Ang):
   XX=           -166.2060   YY=           -194.8063   ZZ=           -192.8557
   XY=             -2.4713   XZ=             -6.5044   YZ=              3.0011

 Normal termination of Gaussian 16 at Wed Jul 29 21:04:16 2020.
