 Gaussian 16, Revision A.03,
 Gaussian 16:  ES64L-G16RevA.03 25-Dec-2016

 ------------------------------------------------------------------
 # opt=ModRedundant genecp pbe1pbe EmpiricalDispersion=GD3BJ NoSymm
 ------------------------------------------------------------------

 -------------------
 Title Card Required
 -------------------
 Symbolic Z-matrix:
 Charge =  0 Multiplicity = 3

 SCF Done:  E(UPBE1PBE) =  -1554.54608100     A.U. after   62 cycles
 SCF Done:  E(UPBE1PBE) =  -1554.55743540     A.U. after   24 cycles
 SCF Done:  E(UPBE1PBE) =  -1554.56740161     A.U. after   21 cycles
 SCF Done:  E(UPBE1PBE) =  -1554.57400948     A.U. after   22 cycles
 SCF Done:  E(UPBE1PBE) =  -1554.57512101     A.U. after   21 cycles
 SCF Done:  E(UPBE1PBE) =  -1554.57723937     A.U. after   21 cycles
 SCF Done:  E(UPBE1PBE) =  -1554.57968319     A.U. after   21 cycles
 SCF Done:  E(UPBE1PBE) =  -1554.57971172     A.U. after   18 cycles
 SCF Done:  E(UPBE1PBE) =  -1554.57980109     A.U. after   19 cycles
 SCF Done:  E(UPBE1PBE) =  -1554.58021460     A.U. after   19 cycles
 SCF Done:  E(UPBE1PBE) =  -1554.58041344     A.U. after   17 cycles
 SCF Done:  E(UPBE1PBE) =  -1554.58039658     A.U. after   17 cycles
 SCF Done:  E(UPBE1PBE) =  -1554.58039587     A.U. after   18 cycles
 SCF Done:  E(UPBE1PBE) =  -1554.58044292     A.U. after   15 cycles
 SCF Done:  E(UPBE1PBE) =  -1554.58044909     A.U. after   15 cycles
 SCF Done:  E(UPBE1PBE) =  -1554.58045831     A.U. after   16 cycles
 SCF Done:  E(UPBE1PBE) =  -1554.58045996     A.U. after   13 cycles
 SCF Done:  E(UPBE1PBE) =  -1554.58046038     A.U. after   13 cycles
 SCF Done:  E(UPBE1PBE) =  -1554.58046048     A.U. after   12 cycles
 Optimization completed.
    -- Stationary point found.

                          Input orientation:
 ---------------------------------------------------------------------
 Center     Atomic      Atomic             Coordinates (Angstroms)
 Number     Number       Type             X           Y           Z
 ---------------------------------------------------------------------
      1          7           0       -0.752664    1.198243   -0.063570
      2          6           0       -1.897725    1.760429    0.362269
      3          6           0        0.167634    1.952305   -0.690673
      4          6           0       -2.150010    3.118760    0.211737
      5          6           0       -1.193000    3.916127   -0.408455
      6          6           0       -0.027401    3.323450   -0.872711
      7          6           0       -2.886850    0.824372    0.991370
      8          1           0       -3.092751    3.534354    0.569360
      9          1           0       -1.362500    4.986154   -0.542098
     10          1           0        0.738998    3.908653   -1.382277
     11          6           0        1.390699    1.267583   -1.209527
     12          7           0       -2.996420   -0.392659    0.210169
     13          1           0       -3.852866    1.346903    1.138340
     14          1           0       -2.513625    0.542681    1.991330
     15          1           0        1.085554    0.722938   -2.123204
     16         15           0        1.970917   -0.114066   -0.110397
     17          1           0        2.167896    2.001596   -1.464576
     18         44           0       -0.479124   -1.008001    0.034616
     19          6           0       -3.495017   -0.168587   -1.151160
     20          6           0        3.242142   -0.972432   -1.238176
     21          6           0       -3.703908   -1.434175    0.955286
     22          6           0        2.825490    0.741375    1.359363
     23          6           0        2.430563   -1.884851   -2.162957
     24          6           0        4.169348   -1.850359   -0.397508
     25          6           0        4.067252   -0.004282   -2.087353
     26          6           0        1.804877    1.708893    1.968792
     27          6           0        4.092496    1.516514    1.007267
     28          6           0        3.125617   -0.331284    2.412305
     29          6           0       -0.435755   -1.311817    1.874005
     30          8           0       -0.406395   -1.628273    2.997370
     31          1           0       -2.831855    0.571629   -1.620947
     32          6           0       -4.949607    0.266345   -1.262714
     33          1           0       -3.307465   -1.089205   -1.717971
     34          1           0       -3.156755   -1.564060    1.902529
     35          6           0       -3.762241   -2.760025    0.221808
     36          1           0       -4.727556   -1.098828    1.225872
     37          8           0       -0.429933   -2.810415   -0.673610
     38          1           0       -0.340375   -3.524086   -0.020391
     39          8           0       -0.610407   -1.131890   -1.914179
     40          1           0       -0.562358   -2.073183   -2.109544
     41          1           0       -2.762725   -3.036393   -0.148440
     42          1           0       -4.452637   -2.733308   -0.634387
     43          1           0       -4.118777   -3.542319    0.908141
     44          1           0       -5.205818    0.418263   -2.322100
     45          1           0       -5.147598    1.216233   -0.740869
     46          1           0       -5.643624   -0.488437   -0.861599
     47          1           0        3.119743   -2.369764   -2.875089
     48          1           0        1.658992   -1.338252   -2.723522
     49          1           0        1.899385   -2.658621   -1.591080
     50          1           0        4.761333   -2.489071   -1.073997
     51          1           0        3.600632   -2.514034    0.271646
     52          1           0        4.878438   -1.266615    0.206654
     53          1           0        4.791726   -0.583529   -2.685122
     54          1           0        4.636131    0.718552   -1.487458
     55          1           0        3.438707    0.551185   -2.798222
     56          1           0        4.903997    0.859282    0.665310
     57          1           0        4.457574    2.048552    1.903032
     58          1           0        3.910638    2.274344    0.229204
     59          1           0        3.888086   -1.047927    2.082930
     60          1           0        2.218034   -0.892474    2.678850
     61          1           0        3.501483    0.156650    3.327528
     62          1           0        2.200488    2.082708    2.927873
     63          1           0        0.843380    1.213244    2.169062
     64          1           0        1.618980    2.581409    1.326282
 ---------------------------------------------------------------------

 Alpha  occ. eigenvalues --  -77.23954 -19.24029 -19.16975 -19.10458 -14.44069
 Alpha  occ. eigenvalues --  -14.41159 -10.30531 -10.30001 -10.29505 -10.27545
 Alpha  occ. eigenvalues --  -10.27390 -10.26286 -10.26251 -10.26032 -10.25736
 Alpha  occ. eigenvalues --  -10.25421 -10.24998 -10.24391 -10.23394 -10.22779
 Alpha  occ. eigenvalues --  -10.22771 -10.22765 -10.22337 -10.22318 -10.21168
 Alpha  occ. eigenvalues --  -10.20459  -6.62080  -4.75699  -4.75625  -4.75360
 Alpha  occ. eigenvalues --   -3.07101  -1.91646  -1.90877  -1.88839  -1.10277
 Alpha  occ. eigenvalues --   -1.01262  -0.96615  -0.95967  -0.88551  -0.85812
 Alpha  occ. eigenvalues --   -0.85273  -0.84080  -0.83279  -0.77828  -0.77551
 Alpha  occ. eigenvalues --   -0.74833  -0.71523  -0.71043  -0.70778  -0.70371
 Alpha  occ. eigenvalues --   -0.69409  -0.66669  -0.66279  -0.63874  -0.62393
 Alpha  occ. eigenvalues --   -0.57548  -0.56592  -0.54538  -0.54373  -0.53819
 Alpha  occ. eigenvalues --   -0.52446  -0.51143  -0.50206  -0.49170  -0.48113
 Alpha  occ. eigenvalues --   -0.47352  -0.46975  -0.46434  -0.45906  -0.45551
 Alpha  occ. eigenvalues --   -0.44906  -0.44691  -0.44401  -0.44206  -0.43793
 Alpha  occ. eigenvalues --   -0.43319  -0.42492  -0.42173  -0.41714  -0.41529
 Alpha  occ. eigenvalues --   -0.41087  -0.40768  -0.40172  -0.39515  -0.39370
 Alpha  occ. eigenvalues --   -0.38887  -0.38698  -0.38353  -0.38027  -0.37577
 Alpha  occ. eigenvalues --   -0.36830  -0.36535  -0.36180  -0.35757  -0.35211
 Alpha  occ. eigenvalues --   -0.34542  -0.34288  -0.34161  -0.33754  -0.33659
 Alpha  occ. eigenvalues --   -0.33352  -0.32433  -0.32154  -0.31190  -0.30210
 Alpha  occ. eigenvalues --   -0.29612  -0.27768  -0.27307  -0.26423  -0.25044
 Alpha  occ. eigenvalues --   -0.21310  -0.20608  -0.18597  -0.14272
 Alpha virt. eigenvalues --   -0.04998  -0.02824   0.00752   0.02044   0.02568
 Alpha virt. eigenvalues --    0.03483   0.03980   0.04207   0.05251   0.06172
 Alpha virt. eigenvalues --    0.06989   0.07556   0.07972   0.08350   0.08904

  Beta  occ. eigenvalues --  -77.23854 -19.24160 -19.16542 -19.10461 -14.44021
  Beta  occ. eigenvalues --  -14.40862 -10.30533 -10.29999 -10.29631 -10.27552
  Beta  occ. eigenvalues --  -10.27397 -10.26283 -10.26248 -10.25993 -10.25695
  Beta  occ. eigenvalues --  -10.25430 -10.25017 -10.24401 -10.23380 -10.22783
  Beta  occ. eigenvalues --  -10.22765 -10.22755 -10.22336 -10.22310 -10.21167
  Beta  occ. eigenvalues --  -10.20461  -6.61946  -4.75599  -4.75543  -4.75120
  Beta  occ. eigenvalues --   -3.00922  -1.85601  -1.83745  -1.80950  -1.10508
  Beta  occ. eigenvalues --   -1.01170  -0.96271  -0.95045  -0.88344  -0.85717
  Beta  occ. eigenvalues --   -0.85249  -0.84040  -0.83216  -0.77807  -0.77524
  Beta  occ. eigenvalues --   -0.74791  -0.71482  -0.71020  -0.70706  -0.70355
  Beta  occ. eigenvalues --   -0.69394  -0.66530  -0.66226  -0.63801  -0.62181
  Beta  occ. eigenvalues --   -0.57451  -0.56500  -0.54723  -0.54352  -0.53748
  Beta  occ. eigenvalues --   -0.52327  -0.51045  -0.49999  -0.49111  -0.47995
  Beta  occ. eigenvalues --   -0.46937  -0.46829  -0.46372  -0.45824  -0.45451
  Beta  occ. eigenvalues --   -0.44825  -0.44566  -0.44323  -0.44143  -0.43464
  Beta  occ. eigenvalues --   -0.43151  -0.42517  -0.42237  -0.41784  -0.41723
  Beta  occ. eigenvalues --   -0.41118  -0.40709  -0.40144  -0.39484  -0.39337
  Beta  occ. eigenvalues --   -0.38849  -0.38607  -0.38245  -0.37675  -0.37399
  Beta  occ. eigenvalues --   -0.36763  -0.36407  -0.35853  -0.35676  -0.35043
  Beta  occ. eigenvalues --   -0.34367  -0.34153  -0.33978  -0.33642  -0.33581
  Beta  occ. eigenvalues --   -0.33209  -0.32018  -0.30182  -0.29519  -0.28747
  Beta  occ. eigenvalues --   -0.27606  -0.27218  -0.24978  -0.24515  -0.23864
  Beta  occ. eigenvalues --   -0.19744  -0.17252
  Beta virt. eigenvalues --   -0.05994  -0.04325  -0.02814  -0.00792   0.00987
  Beta virt. eigenvalues --    0.02354   0.03243   0.03707   0.04486   0.04795
  Beta virt. eigenvalues --    0.05818   0.06694   0.07417   0.07607   0.08293

 Mulliken charges and spin densities:
               1          2
     1  N   -0.317823   0.008773
     2  C    0.023215   0.001240
     3  C    0.086059  -0.001824
     4  C   -0.031348   0.001354
     5  C    0.089835  -0.004610
     6  C   -0.039392   0.001552
     7  C    0.133929  -0.000356
     8  H    0.007425   0.001485
     9  H    0.020339   0.000208
    10  H    0.007237   0.001192
    11  C   -0.102589  -0.007791
    12  N   -0.341581   0.083351
    13  H    0.027335   0.001951
    14  H    0.090511   0.001195
    15  H    0.155463  -0.000219
    16  P    0.230435   0.161339
    17  H    0.052500   0.000272
    18  Ru   0.072772   1.691260
    19  C   -0.018422  -0.003688
    20  C   -0.484614   0.014878
    21  C   -0.001185  -0.004346
    22  C   -0.469715   0.012702
    23  C    0.003800  -0.000562
    24  C   -0.003185  -0.000562
    25  C    0.012058   0.003733
    26  C   -0.014803  -0.001606
    27  C    0.018392   0.003019
    28  C   -0.010923   0.000384
    29  C   -0.040303  -0.084469
    30  O   -0.143385  -0.041132
    31  H    0.097970   0.001454
    32  C   -0.067937   0.002745
    33  H    0.102511   0.001503
    34  H    0.066235   0.001839
    35  C   -0.109439   0.001549
    36  H    0.024034   0.005477
    37  O   -0.408804   0.142883
    38  H    0.171004  -0.003536
    39  O   -0.418947  -0.004433
    40  H    0.208559   0.001270
    41  H    0.124373  -0.000907
    42  H    0.046142  -0.000078
    43  H    0.047556  -0.000180
    44  H    0.052041   0.001153
    45  H    0.035402  -0.000186
    46  H    0.047593  -0.000170
    47  H    0.025676  -0.000431
    48  H    0.083628   0.000074
    49  H    0.105932   0.000177
    50  H    0.042360   0.000053
    51  H    0.070097   0.001245
    52  H    0.043868   0.000003
    53  H    0.037754   0.004849
    54  H    0.029618  -0.000320
    55  H    0.047864  -0.000282
    56  H    0.050427  -0.000211
    57  H    0.037345   0.005254
    58  H    0.039957  -0.000194
    59  H    0.035322  -0.000094
    60  H    0.090682   0.000358
    61  H    0.036926  -0.000119
    62  H    0.038877  -0.000050
    63  H    0.105469   0.000537
    64  H    0.047870   0.000044
 Sum of Mulliken charges =  -0.00000   2.00000

 Dipole moment (field-independent basis, Debye):
    X=              0.5508    Y=              5.4776    Z=              0.6828  Tot=              5.5474
 Quadrupole moment (field-independent basis, Debye-Ang):
   XX=           -169.5457   YY=           -177.1196   ZZ=           -200.4439
   XY=             -4.1352   XZ=             -4.2374   YZ=             -1.9425

 Normal termination of Gaussian 16 at Wed Jul 29 20:07:54 2020.
