 Gaussian 16, Revision A.03,
 Gaussian 16:  ES64L-G16RevA.03 25-Dec-2016

 ----------------------------------------------------------------------
 # genecp pbe1pbe EmpiricalDispersion=GD3BJ scrf=(SMD,solvent=water) ge
 om=allcheck
 ----------------------------------------------------------------------

 Structure from the checkpoint file:  "/scratch/js1212.757595/TSHJ-Trans-R2-R2-Down-T-GP-SMD.chk"
 -------------------
 Title Card Required
 -------------------
 Charge =  0 Multiplicity = 3

                         Standard orientation:
 ---------------------------------------------------------------------
 Center     Atomic      Atomic             Coordinates (Angstroms)
 Number     Number       Type             X           Y           Z
 ---------------------------------------------------------------------
      1          1           0       -1.351709   -0.178379   -4.756758
      2          6           0       -2.221198   -0.153651   -4.083574
      3          1           0       -3.124461   -0.090821   -4.709417
      4          1           0       -2.138738    0.759015   -3.473883
      5          1           0       -0.318639    1.261655    1.256217
      6          8           0       -1.252347   -0.742307   -0.303955
      7          1           0       -2.043790    3.710094    0.572544
      8          8           0       -0.246460   -0.248380   -1.039915
      9          1           0       -1.890382    2.239461   -1.479605
     10          6           0       -2.191570   -1.387397   -3.208335
     11          1           0        0.176548    1.422831    2.969133
     12          1           0       -2.245840   -2.306439   -3.822647
     13          6           0       -0.640750    1.604634    2.250744
     14          1           0       -3.451618    3.487340   -0.484763
     15          1           0       -0.790772    2.694016    2.210267
     16          1           0       -1.242349   -1.416228   -2.657059
     17          6           0       -3.136594    3.819784    0.513318
     18          1           0       -3.378209    4.891636    0.607319
     19          1           0       -2.036791   -2.650407   -1.060994
     20         44           0       -3.106408    0.231669   -0.595236
     21          1           0       -1.381130   -0.997728    1.657481
     22          7           0       -3.266660   -1.418758   -2.188751
     23          6           0       -3.094109   -2.638296   -1.370284
     24          6           0       -1.886977    0.857371    2.722252
     25          1           0       -0.740664   -0.858997    3.312854
     26          1           0       -2.513850    3.830094    3.157746
     27          6           0       -1.615013   -0.652496    2.673125
     28          6           0       -3.864040    3.042331    1.615970
     29         15           0       -3.273522    1.224426    1.468903
     30          1           0       -3.299590   -3.553346   -1.950238
     31          6           0       -3.587680    3.721033    2.956389
     32          1           0       -4.750829   -0.405964   -3.254834
     33          1           0       -4.296515   -2.418455   -4.701821
     34          1           0       -4.016742    4.736497    2.922267
     35          6           0       -4.621453   -1.392471   -2.793622
     36          1           0       -1.446043    0.710392    4.815488
     37          6           0       -4.524095    1.178089   -1.248008
     38          6           0       -2.200361    1.204804    4.181224
     39          1           0       -5.691227    2.592532    0.459224
     40          6           0       -5.373869    3.116463    1.369302
     41          1           0       -2.150251    2.276052    4.397592
     42          1           0       -5.652774    4.176031    1.245284
     43          6           0       -3.918046   -2.607468   -0.113012
     44          7           0       -4.006364   -1.401921    0.466978
     45          6           0       -4.939258   -2.477664   -3.811357
     46          1           0       -2.456674   -1.234294    3.080258
     47          1           0       -5.337096   -1.433614   -1.959067
     48          1           0       -4.055869    3.195172    3.799978
     49          1           0       -4.859408   -3.494328   -3.398104
     50          6           0       -4.699441    0.191008    2.141528
     51          1           0       -5.978379   -2.346585   -4.148474
     52          1           0       -3.183280    0.830038    4.506751
     53          6           0       -4.638020   -1.222129    1.637483
     54          6           0       -4.494277   -3.725679    0.479834
     55          1           0       -5.946802    2.729170    2.225692
     56          1           0       -4.423608   -4.701779   -0.001938
     57          1           0       -5.606721    0.650855    1.718784
     58          1           0       -4.797069    0.221484    3.236769
     59          6           0       -5.218293   -2.309172    2.291786
     60          6           0       -5.145522   -3.568458    1.702695
     61          1           0       -5.724851   -2.165292    3.247026
     62          1           0       -5.600448   -4.429536    2.195873
     63          8           0       -5.397744    1.779848   -1.744493
     64          6           0        1.950643    4.786654   -0.601732
     65          1           0        1.769650   -0.904761    2.809706
     66          8           0       -1.009182    2.268647   -1.891785
     67          1           0        0.605560   -2.822945    0.898357
     68          8           0        2.648668    1.233334    1.581088
     69          1           0       -0.644104    1.395749   -1.610624
     70          6           0        1.826685    3.279591   -0.431506
     71          1           0        2.443679   -1.766746    4.220679
     72          6           0        2.297645   -1.813896    3.128066
     73          1           0        0.761104   -2.182346   -0.736355
     74          1           0        1.656972   -2.682640    2.913404
     75          6           0        0.989767   -3.052203   -0.106717
     76          1           0        0.440419   -3.933075   -0.483544
     77          1           0        3.884649    2.904793    0.890708
     78         44           0        2.747470    0.276118   -0.277925
     79          1           0        4.032413    0.241091    2.495305
     80          7           0        2.972920    2.469492   -0.915607
     81          6           0        4.190779    2.852600   -0.166336
     82          6           0        3.656428   -1.908908    2.433264
     83          1           0        4.598497   -0.687451    3.927216
     84          1           0        2.274170   -4.564891    1.743159
     85          6           0        4.510532   -0.695772    2.826770
     86          6           0        2.486846   -3.371911   -0.086861
     87         15           0        3.343824   -1.781378    0.551574
     88          1           0        4.571837    3.835242   -0.493088
     89          6           0        2.716319   -4.634896    0.740624
     90          1           0        3.992574    1.913758   -2.643555
     91          1           0        1.466218    1.562473   -3.032463
     92          1           0        2.219420   -5.475245    0.226391
     93          6           0        3.224758    2.651362   -2.362652
     94          1           0        4.746562   -2.977977    3.938490
     95          6           0        2.635756   -0.382745   -1.969492
     96          6           0        4.408046   -3.158032    2.904377
     97          1           0        2.879738   -2.815974   -2.187875
     98          6           0        2.958201   -3.674811   -1.511980
     99          1           0        3.797052   -4.065823    2.917175
    100          1           0        2.316659   -4.472169   -1.923697
    101          6           0        5.284107    1.825807   -0.239003
    102          7           0        4.860047    0.556299   -0.190839
    103          6           0        1.999777    2.497746   -3.239576
    104          1           0        5.532860   -0.772196    2.424313
    105          1           0        3.672221    3.651763   -2.526647
    106          1           0        3.780326   -4.893585    0.838664
    107          1           0        1.282540    3.318699   -3.107747
    108          6           0        5.097926   -1.845692   -0.134576
    109          1           0        2.314403    2.482668   -4.293734
    110          1           0        5.311411   -3.357079    2.307227
    111          6           0        5.716619   -0.476458   -0.145680
    112          6           0        6.643964    2.121005   -0.262293
    113          1           0        3.992354   -4.052821   -1.530130
    114          1           0        6.980259    3.157373   -0.312887
    115          1           0        4.980487   -2.167699   -1.181739
    116          1           0        5.753816   -2.576823    0.361294
    117          6           0        7.092103   -0.244262   -0.141256
    118          6           0        7.554560    1.067560   -0.205468
    119          1           0        7.787590   -1.083249   -0.095285
    120          1           0        8.627509    1.269101   -0.213843
    121          1           0        1.772641    1.055096    1.934074
    122          8           0        2.502410   -0.768387   -3.066881
    123          1           0        1.030011    5.255297   -0.221657
    124          1           0        2.053184    5.091005   -1.655050
    125          1           0        2.791232    5.217548   -0.035854
    126          1           0        1.731061    3.007830    0.628587
    127          1           0        0.926610    2.920466   -0.944845
    128          1           0        1.084000    0.096964   -0.354690
 ---------------------------------------------------------------------

 SCF Done:  E(UPBE1PBE) =  -3109.84756432     A.U. after   25 cycles

 Alpha virt. eigenvalues --    2.88494   2.88756   2.88845   2.89170   2.89292
 Alpha virt. eigenvalues --    2.89664   2.90096   2.90204   2.90287   2.90556
 Alpha virt. eigenvalues --    2.90855   2.90888   2.91157   2.91461   2.91791

  Beta  occ. eigenvalues --  -77.25067 -77.25029 -19.23548 -19.23343 -19.21946
  Beta  occ. eigenvalues --  -19.21335 -19.18093 -19.12684 -14.42387 -14.42024
  Beta  occ. eigenvalues --  -14.41764 -14.41618 -10.30017 -10.29834 -10.28455
  Beta  occ. eigenvalues --  -10.28361 -10.28038 -10.27859 -10.25277 -10.24963
  Beta  occ. eigenvalues --  -10.24869 -10.24865 -10.24788 -10.24602 -10.24578
  Beta  occ. eigenvalues --  -10.24469 -10.24401 -10.24367 -10.24142 -10.23826
  Beta  occ. eigenvalues --  -10.23798 -10.23711 -10.23697 -10.23224 -10.23189
  Beta  occ. eigenvalues --  -10.23075 -10.20725 -10.20703 -10.20625 -10.20612
  Beta  occ. eigenvalues --  -10.20562 -10.20531 -10.20495 -10.20455 -10.20421
  Beta  occ. eigenvalues --  -10.20392 -10.20376 -10.20354 -10.20345 -10.19864
  Beta  occ. eigenvalues --  -10.19830 -10.19172  -6.62408  -6.62362  -4.76081
  Beta  occ. eigenvalues --   -4.76041  -4.76011  -4.75963  -4.75764  -4.75712
  Beta  occ. eigenvalues --   -3.02112  -3.00723  -1.86354  -1.85431  -1.85066
  Beta  occ. eigenvalues --   -1.84065  -1.83886  -1.81361  -1.11202  -1.10930
  Beta  occ. eigenvalues --   -1.10227  -1.00908  -0.99977  -0.99906  -0.96290
  Beta  occ. eigenvalues --   -0.96005  -0.92295  -0.84732  -0.84516  -0.83297
  Beta  occ. eigenvalues --   -0.83239  -0.82934  -0.82778  -0.82454  -0.82145
  Beta  occ. eigenvalues --   -0.77758  -0.77535  -0.76959  -0.76315  -0.76178
  Beta  occ. eigenvalues --   -0.73783  -0.73621  -0.70412  -0.70246  -0.70169
  Beta  occ. eigenvalues --   -0.70002  -0.69831  -0.69654  -0.69645  -0.69296
  Beta  occ. eigenvalues --   -0.68889  -0.68592  -0.65953  -0.65371  -0.65277
  Beta  occ. eigenvalues --   -0.65085  -0.63387  -0.62870  -0.61630  -0.61509
  Beta  occ. eigenvalues --   -0.57588  -0.57183  -0.56098  -0.55997  -0.55667
  Beta  occ. eigenvalues --   -0.55549  -0.53161  -0.53109  -0.52809  -0.52644
  Beta  occ. eigenvalues --   -0.51867  -0.51562  -0.51283  -0.50900  -0.49880
  Beta  occ. eigenvalues --   -0.49805  -0.49121  -0.48536  -0.48294  -0.47691
  Beta  occ. eigenvalues --   -0.47443  -0.47024  -0.46467  -0.46057  -0.45767
  Beta  occ. eigenvalues --   -0.45605  -0.45472  -0.45320  -0.45184  -0.44945
  Beta  occ. eigenvalues --   -0.44832  -0.44648  -0.44323  -0.44073  -0.43970
  Beta  occ. eigenvalues --   -0.43883  -0.43757  -0.43553  -0.43188  -0.42997
  Beta  occ. eigenvalues --   -0.42952  -0.42945  -0.42717  -0.42369  -0.42256
  Beta  occ. eigenvalues --   -0.42074  -0.41945  -0.41787  -0.41434  -0.41186
  Beta  occ. eigenvalues --   -0.41091  -0.40835  -0.40722  -0.40514  -0.40038
  Beta  occ. eigenvalues --   -0.39935  -0.39603  -0.39374  -0.38920  -0.38679
  Beta  occ. eigenvalues --   -0.38613  -0.38263  -0.38106  -0.37956  -0.37886
  Beta  occ. eigenvalues --   -0.37750  -0.37642  -0.37561  -0.37497  -0.37098
  Beta  occ. eigenvalues --   -0.36619  -0.36539  -0.36379  -0.36207  -0.36168
  Beta  occ. eigenvalues --   -0.36155  -0.35634  -0.35567  -0.35210  -0.34990
  Beta  occ. eigenvalues --   -0.34473  -0.34451  -0.34368  -0.34065  -0.33945
  Beta  occ. eigenvalues --   -0.33825  -0.33520  -0.33268  -0.33106  -0.32994
  Beta  occ. eigenvalues --   -0.32633  -0.32423  -0.32056  -0.31977  -0.31504
  Beta  occ. eigenvalues --   -0.31285  -0.31072  -0.30957  -0.30316  -0.29552
  Beta  occ. eigenvalues --   -0.29467  -0.28807  -0.27081  -0.26892  -0.26610
  Beta  occ. eigenvalues --   -0.26557  -0.26082  -0.25424  -0.23052  -0.21821
  Beta  occ. eigenvalues --   -0.21711  -0.21011  -0.20012  -0.19760  -0.19121
  Beta virt. eigenvalues --   -0.07169  -0.04004  -0.03534  -0.02054  -0.01788
  Beta virt. eigenvalues --   -0.01733   0.00839   0.01068   0.01149   0.01564
  Beta virt. eigenvalues --    0.02419   0.02834   0.03112   0.03572   0.03741

 Mulliken charges and spin densities:
               1          2
     1  H    0.122366   0.000746
     2  C   -0.350302   0.001698
     3  H    0.117727  -0.000047
     4  H    0.108268   0.002186
     5  H    0.095842  -0.004656
     6  O   -0.400980   0.291999
     7  H    0.129505  -0.001604
     8  O   -0.299669   0.499560
     9  H    0.271750   0.022249
    10  C   -0.127846  -0.001000
    11  H    0.108937   0.000466
    12  H    0.119857   0.000812
    13  C   -0.349629   0.001446
    14  H    0.143006  -0.005898
    15  H    0.134737   0.000240
    16  H    0.151828   0.001313
    17  C   -0.364750   0.002109
    18  H    0.112497   0.001375
    19  H    0.177058  -0.001985
    20  Ru   0.770380   0.905105
    21  H    0.171671  -0.001604
    22  N   -0.235902  -0.002543
    23  C   -0.138430   0.011746
    24  C    0.021537  -0.003569
    25  H    0.120050   0.000204
    26  H    0.117557   0.000034
    27  C   -0.418383   0.007028
    28  C    0.020433  -0.001615
    29  P    0.038736  -0.015428
    30  H    0.129078  -0.000716
    31  C   -0.334558  -0.000485
    32  H    0.130817  -0.000556
    33  H    0.112206  -0.000022
    34  H    0.107878  -0.000045
    35  C   -0.124997   0.000139
    36  H    0.109467  -0.000113
    37  C   -0.234988   0.001806
    38  C   -0.340487   0.000539
    39  H    0.137413  -0.000007
    40  C   -0.357031   0.000041
    41  H    0.118869   0.000104
    42  H    0.107459  -0.000071
    43  C    0.137371  -0.004839
    44  N   -0.182961   0.059784
    45  C   -0.327790   0.000085
    46  H    0.123648   0.000127
    47  H    0.141255   0.000153
    48  H    0.112487   0.000060
    49  H    0.111324   0.000017
    50  C   -0.230352  -0.000484
    51  H    0.117860   0.000051
    52  H    0.117938  -0.000014
    53  C    0.039190  -0.000969
    54  C   -0.171644   0.005018
    55  H    0.112413  -0.000031
    56  H    0.161465   0.001554
    57  H    0.157978  -0.000283
    58  H    0.146368  -0.001070
    59  C   -0.142309   0.003999
    60  C   -0.135306  -0.002013
    61  H    0.162377   0.001218
    62  H    0.162026  -0.000015
    63  O   -0.329113   0.014749
    64  C   -0.336629   0.000245
    65  H    0.116840  -0.000358
    66  O   -0.569072   0.025952
    67  H    0.123214   0.000018
    68  O   -0.746912  -0.001635
    69  H    0.337869  -0.013355
    70  C   -0.136004   0.001177
    71  H    0.107626   0.000076
    72  C   -0.347306  -0.000028
    73  H    0.148538  -0.004140
    74  H    0.121576   0.000009
    75  C   -0.361221  -0.000125
    76  H    0.108812   0.000235
    77  H    0.172253  -0.000072
    78  Ru   0.588448   0.204481
    79  H    0.157784  -0.000056
    80  N   -0.197605  -0.000969
    81  C   -0.106443   0.000957
    82  C    0.011520  -0.000802
    83  H    0.101509  -0.000009
    84  H    0.116887   0.000013
    85  C   -0.404284  -0.000009
    86  C    0.008479  -0.000884
    87  P    0.076641  -0.005384
    88  H    0.123417  -0.000219
    89  C   -0.338799  -0.000089
    90  H    0.144761  -0.000011
    91  H    0.118582   0.000025
    92  H    0.107269  -0.000030
    93  C   -0.116235  -0.000049
    94  H    0.107258  -0.000103
    95  C   -0.196760  -0.007982
    96  C   -0.340103  -0.000144
    97  H    0.141705  -0.000091
    98  C   -0.372567   0.000039
    99  H    0.117914   0.000010
   100  H    0.105961  -0.000001
   101  C    0.093185  -0.001397
   102  N   -0.127373   0.030322
   103  C   -0.345289   0.000774
   104  H    0.112444   0.000012
   105  H    0.116731  -0.000114
   106  H    0.113217   0.000001
   107  H    0.112852   0.000360
   108  C   -0.235340   0.000398
   109  H    0.124127   0.000062
   110  H    0.116288   0.000008
   111  C    0.039455  -0.001971
   112  C   -0.164718   0.002603
   113  H    0.115227  -0.000007
   114  H    0.160167   0.000505
   115  H    0.157566  -0.000138
   116  H    0.145551  -0.000256
   117  C   -0.139091   0.002520
   118  C   -0.137136  -0.002269
   119  H    0.162344   0.000399
   120  H    0.161620   0.000059
   121  H    0.287422  -0.001375
   122  O   -0.327453   0.001483
   123  H    0.119104   0.000039
   124  H    0.109837  -0.000020
   125  H    0.113187  -0.000001
   126  H    0.142101   0.000052
   127  H    0.118126   0.000412
   128  H   -0.052276  -0.017230
 Sum of Mulliken charges =  -0.00000   2.00000

 Dipole moment (field-independent basis, Debye):
    X=             -0.0543    Y=             -7.9697    Z=              7.0980  Tot=             10.6724
 Quadrupole moment (field-independent basis, Debye-Ang):
   XX=           -285.1539   YY=           -336.6326   ZZ=           -376.5606
   XY=             29.9011   XZ=            -29.7089   YZ=              6.8226

 Normal termination of Gaussian 16 at Thu Jul 23 01:03:34 2020.
