 Gaussian 16, Revision A.03,
 Gaussian 16:  ES64L-G16RevA.03 25-Dec-2016

 ----------------------------------------------------------------------
 # nmr pbe1pbe/cc-pVTZ EmpiricalDispersion=GD3BJ scrf=(SMD,solvent=wate
 r) geom=allcheck
 ----------------------------------------------------------------------

 Structure from the checkpoint file:  "/scratch/js1212.15168/H3PO4-GPOF.chk"
 -------------------
 Title Card Required
 -------------------
 Charge =  0 Multiplicity = 1

                         Standard orientation:
 ---------------------------------------------------------------------
 Center     Atomic      Atomic             Coordinates (Angstroms)
 Number     Number       Type             X           Y           Z
 ---------------------------------------------------------------------
      1         15           0       -0.001757    0.000202    0.121151
      2          8           0        0.860461    1.173333   -0.593917
      3          8           0        0.601138   -1.324224   -0.595703
      4          8           0       -1.433073    0.150357   -0.627275
      5          1           0       -2.009575    0.705167   -0.081730
      6          1           0        0.386209   -2.095534   -0.051030
      7          1           0        1.622786    1.381528   -0.034198
      8          8           0       -0.025158    0.001260    1.610606
 ---------------------------------------------------------------------

 SCF Done:  E(RPBE1PBE) =  -643.900434968     A.U. after   10 cycles

      1  P    Isotropic =   307.1786   Anisotropy =   173.8705

      2  O    Isotropic =   226.3211   Anisotropy =   117.7637

      3  O    Isotropic =   226.1723   Anisotropy =   117.8222

      4  O    Isotropic =   226.2655   Anisotropy =   118.2178

      5  H    Isotropic =    26.8378   Anisotropy =    18.0292

      6  H    Isotropic =    26.8442   Anisotropy =    18.0429

      7  H    Isotropic =    26.8443   Anisotropy =    18.0434

      8  O    Isotropic =   190.5955   Anisotropy =    79.8764

 The electronic state is 1-A.
 Alpha  occ. eigenvalues --  -77.38756 -19.24944 -19.24942 -19.24937 -19.19059
 Alpha  occ. eigenvalues --   -6.74503  -4.88289  -4.88289  -4.88095  -1.12971
 Alpha  occ. eigenvalues --   -1.06607  -1.06603  -1.00697  -0.66959  -0.56037
 Alpha  occ. eigenvalues --   -0.55997  -0.50954  -0.45916  -0.45899  -0.40858
 Alpha  occ. eigenvalues --   -0.39612  -0.39593  -0.36172  -0.33549  -0.33543
 Alpha virt. eigenvalues --    0.03137   0.08552   0.08565   0.12393   0.14366
 Alpha virt. eigenvalues --    0.14380   0.17948   0.25438   0.29435   0.29479
 Alpha virt. eigenvalues --    0.31029   0.37822   0.37873   0.42672   0.42898

 Mulliken charges:
               1
     1  P    0.910138
     2  O   -0.382486
     3  O   -0.382674
     4  O   -0.382915
     5  H    0.282938
     6  H    0.282677
     7  H    0.282696
     8  O   -0.610375
 Sum of Mulliken charges =  -0.00000

 Dipole moment (field-independent basis, Debye):
    X=             -0.0044    Y=             -0.0188    Z=             -0.2342  Tot=              0.2350
 Quadrupole moment (field-independent basis, Debye-Ang):
   XX=            -27.7445   YY=            -27.7969   ZZ=            -45.6790
   XY=              0.0425   XZ=              0.2436   YZ=              0.0036

 Normal termination of Gaussian 16 at Sun Nov 11 17:14:56 2018.
