 Gaussian 16, Revision A.03,
 Gaussian 16:  ES64L-G16RevA.03 25-Dec-2016

 ----------------------------------------------------
 # opt freq pbe1pbe/cc-pVDZ EmpiricalDispersion=GD3BJ
 ----------------------------------------------------

 -------------------
 Title Card Required
 -------------------
 Symbolic Z-matrix:
 Charge =  0 Multiplicity = 1

 SCF Done:  E(RPBE1PBE) =  -643.664943780     A.U. after   13 cycles
 SCF Done:  E(RPBE1PBE) =  -643.701106950     A.U. after   12 cycles
 SCF Done:  E(RPBE1PBE) =  -643.712863404     A.U. after   12 cycles
 SCF Done:  E(RPBE1PBE) =  -643.713828730     A.U. after   11 cycles
 SCF Done:  E(RPBE1PBE) =  -643.714104952     A.U. after   11 cycles
 SCF Done:  E(RPBE1PBE) =  -643.714239626     A.U. after   11 cycles
 SCF Done:  E(RPBE1PBE) =  -643.714305198     A.U. after   11 cycles
 SCF Done:  E(RPBE1PBE) =  -643.714314721     A.U. after    9 cycles
 SCF Done:  E(RPBE1PBE) =  -643.714315642     A.U. after    7 cycles
 SCF Done:  E(RPBE1PBE) =  -643.714315009     A.U. after    8 cycles
 SCF Done:  E(RPBE1PBE) =  -643.714323257     A.U. after    9 cycles
 SCF Done:  E(RPBE1PBE) =  -643.714332333     A.U. after   10 cycles
 SCF Done:  E(RPBE1PBE) =  -643.714333010     A.U. after    8 cycles
 SCF Done:  E(RPBE1PBE) =  -643.714333588     A.U. after    7 cycles
 Optimization completed.
    -- Stationary point found.
 Normal termination of Gaussian 16 at Sun Nov 11 17:14:22 2018.

 ---------------------------------------------------------------------
 #N Geom=AllCheck Guess=TCheck SCRF=Check GenChk RPBE1PBE/CC-pVDZ Freq
 ---------------------------------------------------------------------

 Structure from the checkpoint file:  "/scratch/js1212.15167/H3PO4-GPOF.chk"
 -------------------
 Title Card Required
 -------------------
 Charge =  0 Multiplicity = 1

                         Standard orientation:
 ---------------------------------------------------------------------
 Center     Atomic      Atomic             Coordinates (Angstroms)
 Number     Number       Type             X           Y           Z
 ---------------------------------------------------------------------
      1         15           0       -0.001757    0.000202    0.121151
      2          8           0        0.860461    1.173333   -0.593917
      3          8           0        0.601138   -1.324224   -0.595703
      4          8           0       -1.433073    0.150357   -0.627275
      5          1           0       -2.009575    0.705167   -0.081730
      6          1           0        0.386209   -2.095534   -0.051030
      7          1           0        1.622786    1.381528   -0.034198
      8          8           0       -0.025158    0.001260    1.610606
 ---------------------------------------------------------------------

 SCF Done:  E(RPBE1PBE) =  -643.714333588     A.U. after    1 cycles

 The electronic state is 1-A.
 Alpha  occ. eigenvalues --  -77.39494 -19.25908 -19.25906 -19.25904 -19.18492
 Alpha  occ. eigenvalues --   -6.75963  -4.89671  -4.89671  -4.89570  -1.13219
 Alpha  occ. eigenvalues --   -1.06846  -1.06841  -0.99301  -0.67497  -0.56355
 Alpha  occ. eigenvalues --   -0.56314  -0.49653  -0.45143  -0.45127  -0.38791
 Alpha  occ. eigenvalues --   -0.38766  -0.38684  -0.35314  -0.31072  -0.31066
 Alpha virt. eigenvalues --    0.02808   0.07703   0.07712   0.13565   0.15264
 Alpha virt. eigenvalues --    0.15286   0.19895   0.41157   0.44125   0.44150
 Alpha virt. eigenvalues --    0.45343   0.49202   0.49272   0.58868   0.62418

 Mulliken charges:
               1
     1  P    0.859833
     2  O   -0.313616
     3  O   -0.313855
     4  O   -0.313911
     5  H    0.188627
     6  H    0.188550
     7  H    0.188609
     8  O   -0.484237
 Sum of Mulliken charges =   0.00000

 Dipole moment (field-independent basis, Debye):
    X=             -0.0050    Y=             -0.0151    Z=              0.0528  Tot=              0.0551
 Quadrupole moment (field-independent basis, Debye-Ang):
   XX=            -28.3794   YY=            -28.4231   ZZ=            -43.2362
   XY=              0.0378   XZ=              0.2019   YZ=              0.0033

  Exact polarizability:  29.013   0.011  28.972  -0.013   0.001  28.446
 Approx polarizability:  36.683   0.009  36.621  -0.159  -0.001  45.114

                      1                      2                      3
                      A                      A                      A
 Frequencies --    147.0898               152.2111               293.8620
 Red. masses --      1.4181                 1.4216                 1.1942
 Frc consts  --      0.0181                 0.0194                 0.0608
 IR Inten    --     70.5139                69.9873                75.0331

                      4                      5                      6
                      A                      A                      A
 Frequencies --    360.9984               361.5151               431.8210
 Red. masses --      2.6352                 2.6146                 4.6307
 Frc consts  --      0.2023                 0.2013                 0.5087
 IR Inten    --     45.0408                45.7549                22.2315

                      7                      8                      9
                      A                      A                      A
 Frequencies --    434.1657               434.3980               819.1492
 Red. masses --      8.1259                 8.2051                 9.1729
 Frc consts  --      0.9025                 0.9122                 3.6265
 IR Inten    --     69.3340                69.2713                12.7362

                     10                     11                     12
                      A                      A                      A
 Frequencies --    928.0769               928.2348              1059.1479
 Red. masses --      6.9071                 6.9917                 1.2956
 Frc consts  --      3.5052                 3.5494                 0.8563
 IR Inten    --    310.8302               311.3531                58.5625

                     13                     14                     15
                      A                      A                      A
 Frequencies --   1059.4800              1060.3510              1307.1360
 Red. masses --      1.2977                 1.2175                12.5244
 Frc consts  --      0.8582                 0.8065                12.6080
 IR Inten    --     58.9653                61.9173               273.2915

                     16                     17                     18
                      A                      A                      A
 Frequencies --   3833.7508              3833.8830              3836.7687
 Red. masses --      1.0652                 1.0652                 1.0667
 Frc consts  --      9.2246                 9.2252                 9.2517
 IR Inten    --    165.0347               167.1134                33.3140

 - Thermochemistry -
 -------------------
 Temperature   298.150 Kelvin.  Pressure   1.00000 Atm.
 Atom     1 has atomic number 15 and mass  30.97376

 Molecular mass:    97.97690 amu.
 Principal axes and moments of inertia in atomic units:
                           1         2         3
     Eigenvalues --   409.36137 417.27320 417.55249
           X           -0.03991   0.97864   0.20169
           Y           -0.00062  -0.20188   0.97941
           Z            0.99920   0.03896   0.00867
 This molecule is an asymmetric top.
 Rotational symmetry number  1.
 Rotational temperatures (Kelvin)      0.21158     0.20757     0.20743
 Rotational constants (GHZ):           4.40867     4.32508     4.32219
 Zero-point vibrational energy     127294.9 (Joules/Mol)
                                   30.42420 (Kcal/Mol)
 Warning -- explicit consideration of   8 degrees of freedom as
           vibrations may cause significant error
 Vibrational temperatures:    211.63   219.00   422.80   519.40   520.14
          (Kelvin)            621.29   624.67   625.00  1178.57  1335.30
                             1335.52  1523.88  1524.36  1525.61  1880.68
                             5515.91  5516.10  5520.25

 Zero-point correction=                           0.048484 (Hartree/Particle)
 Thermal correction to Energy=                    0.054834
 Thermal correction to Enthalpy=                  0.055778
 Thermal correction to Gibbs Free Energy=         0.018861
 Sum of electronic and zero-point Energies=           -643.665850
 Sum of electronic and thermal Energies=              -643.659500
 Sum of electronic and thermal Enthalpies=            -643.658556
 Sum of electronic and thermal Free Energies=         -643.695472

                     E (Thermal)             CV                S
                      KCal/Mol        Cal/Mol-Kelvin    Cal/Mol-Kelvin
 Total                   34.409             21.388             77.697
 Electronic               0.000              0.000              0.000
 Translational            0.889              2.981             39.657
 Rotational               0.889              2.981             25.770
 Vibrational             32.631             15.426             12.270
 Vibration     1          0.617              1.906              2.710
 Vibration     2          0.619              1.900              2.644
 Vibration     3          0.689              1.685              1.452
 Vibration     4          0.735              1.553              1.118
 Vibration     5          0.736              1.552              1.116
 Vibration     6          0.793              1.401              0.853
 Vibration     7          0.795              1.396              0.845
 Vibration     8          0.795              1.395              0.844

                           ! Non-Optimized Parameters !
 Normal termination of Gaussian 16 at Sun Nov 11 17:14:34 2018.
