 Gaussian 16, Revision A.03,
 Gaussian 16:  ES64L-G16RevA.03 25-Dec-2016

 ----------------------------------------------------------------------
 # nmr pbe1pbe/cc-pVTZ EmpiricalDispersion=GD3BJ scrf=(SMD,solvent=wate
 r) geom=allcheck
 ----------------------------------------------------------------------

 Structure from the checkpoint file:  "/scratch/js1212.15139/TMS-GPOF.chk"
 -------------------
 Title Card Required
 -------------------
 Charge =  0 Multiplicity = 1

                         Standard orientation:
 ---------------------------------------------------------------------
 Center     Atomic      Atomic             Coordinates (Angstroms)
 Number     Number       Type             X           Y           Z
 ---------------------------------------------------------------------
      1         14           0       -0.000013   -0.000006   -0.000001
      2          6           0        1.034425   -1.572190   -0.151981
      3          6           0       -1.787953   -0.374383   -0.477490
      4          6           0        0.695007    1.324478   -1.152225
      5          6           0        0.058534    0.622100    1.781696
      6          1           0       -0.341701   -0.131350    2.479355
      7          1           0       -0.537651    1.541196    1.901822
      8          1           0        1.091966    0.849547    2.089739
      9          1           0        1.019403   -1.959919   -1.183507
     10          1           0        0.651933   -2.365516    0.510550
     11          1           0        2.085573   -1.384587    0.120957
     12          1           0       -1.854234   -0.740389   -1.514912
     13          1           0       -2.417676    0.526620   -0.398407
     14          1           0       -2.221730   -1.145917    0.179150
     15          1           0        0.673841    0.989369   -2.201921
     16          1           0        1.739992    1.564665   -0.897423
     17          1           0        0.110378    2.256329   -1.085389
 ---------------------------------------------------------------------

 SCF Done:  E(RPBE1PBE) =  -448.938671179     A.U. after    9 cycles

      1  Si   Isotropic =   359.3621   Anisotropy =     0.1596

      2  C    Isotropic =   188.7357   Anisotropy =     7.9133

      3  C    Isotropic =   188.7379   Anisotropy =     7.9191

      4  C    Isotropic =   188.7355   Anisotropy =     7.9213

      5  C    Isotropic =   188.7438   Anisotropy =     7.9084

      6  H    Isotropic =    31.2155   Anisotropy =     9.7189

      7  H    Isotropic =    31.2163   Anisotropy =     9.7183

      8  H    Isotropic =    31.2152   Anisotropy =     9.7196

      9  H    Isotropic =    31.2148   Anisotropy =     9.7186

     10  H    Isotropic =    31.2165   Anisotropy =     9.7189

     11  H    Isotropic =    31.2157   Anisotropy =     9.7189

     12  H    Isotropic =    31.2157   Anisotropy =     9.7191

     13  H    Isotropic =    31.2157   Anisotropy =     9.7189

     14  H    Isotropic =    31.2161   Anisotropy =     9.7187

     15  H    Isotropic =    31.2156   Anisotropy =     9.7183

     16  H    Isotropic =    31.2159   Anisotropy =     9.7182

     17  H    Isotropic =    31.2157   Anisotropy =     9.7191

 The electronic state is 1-A.
 Alpha  occ. eigenvalues --  -66.22893 -10.19105 -10.19104 -10.19104 -10.19103
 Alpha  occ. eigenvalues --   -5.29600  -3.62991  -3.62991  -3.62991  -0.73025
 Alpha  occ. eigenvalues --   -0.68549  -0.68549  -0.68548  -0.46182  -0.41466
 Alpha  occ. eigenvalues --   -0.41466  -0.41465  -0.39867  -0.39866  -0.38014
 Alpha  occ. eigenvalues --   -0.38013  -0.38013  -0.29809  -0.29808  -0.29808
 Alpha virt. eigenvalues --    0.04088   0.08704   0.08705   0.08705   0.10452
 Alpha virt. eigenvalues --    0.10453   0.10453   0.13708   0.13709   0.15500
 Alpha virt. eigenvalues --    0.15501   0.15502   0.16703   0.16703   0.16703

 Mulliken charges:
               1
     1  Si   0.420160
     2  C   -0.427794
     3  C   -0.427867
     4  C   -0.427826
     5  C   -0.427759
     6  H    0.107600
     7  H    0.107535
     8  H    0.107628
     9  H    0.107601
    10  H    0.107542
    11  H    0.107598
    12  H    0.107610
    13  H    0.107616
    14  H    0.107599
    15  H    0.107560
    16  H    0.107598
    17  H    0.107599
 Sum of Mulliken charges =  -0.00000

 Dipole moment (field-independent basis, Debye):
    X=             -0.0001    Y=              0.0002    Z=             -0.0007  Tot=              0.0007
 Quadrupole moment (field-independent basis, Debye-Ang):
   XX=            -42.2602   YY=            -42.2612   ZZ=            -42.2594
   XY=             -0.0001   XZ=              0.0005   YZ=              0.0005

 Normal termination of Gaussian 16 at Sun Nov 11 14:06:11 2018.
