 Gaussian 16, Revision A.03,
 Gaussian 16:  ES64L-G16RevA.03 25-Dec-2016

 ----------------------------------------------------
 # opt freq pbe1pbe/cc-pVDZ EmpiricalDispersion=GD3BJ
 ----------------------------------------------------

 -------------------
 Title Card Required
 -------------------
 Symbolic Z-matrix:
 Charge =  0 Multiplicity = 1

 SCF Done:  E(RPBE1PBE) =  -448.171998512     A.U. after   11 cycles
 SCF Done:  E(RPBE1PBE) =  -448.450533254     A.U. after   10 cycles
 SCF Done:  E(RPBE1PBE) =  -448.756303318     A.U. after   11 cycles
 SCF Done:  E(RPBE1PBE) =  -448.869383706     A.U. after   11 cycles
 SCF Done:  E(RPBE1PBE) =  -448.871221875     A.U. after    9 cycles
 SCF Done:  E(RPBE1PBE) =  -448.871247016     A.U. after    7 cycles
 Optimization completed.
    -- Stationary point found.

 1\1\GINC-NODE041\FOpt\RPBE1PBE\CC-pVDZ\C4H12Si1\JS1212\10-Nov-2018\0\\
 # opt freq pbe1pbe/cc-pVDZ EmpiricalDispersion=GD3BJ\\Title Card Requi
 red\\0,1\Si,0.8208149734,0.8501248545,0.000019338\C,2.7089148337,0.850
 1371502,-0.0000159031\C,0.1914586376,0.2059056513,1.659469575\C,0.1914
 536268,-0.2648875077,-1.3876342246\C,0.1914446202,2.6093539518,-0.2718
 117196\H,0.5434023648,3.2851191034,0.5244733055\H,-0.9101716086,2.6413
 144441,-0.2767677051\H,0.5434258947,3.0132615399,-1.2349168804\H,3.106
 5798691,-0.1656565734,0.1569260451\H,3.1066264925,1.4939459326,0.80120

 Normal termination of Gaussian 16 at Sat Nov 10 19:05:05 2018.

 ---------------------------------------------------------------------
 #N Geom=AllCheck Guess=TCheck SCRF=Check GenChk RPBE1PBE/CC-pVDZ Freq
 ---------------------------------------------------------------------

 Structure from the checkpoint file:  "/scratch/js1212.15076/TMS-GPOF.chk"
 -------------------
 Title Card Required
 -------------------
 Charge =  0 Multiplicity = 1

                         Standard orientation:
 ---------------------------------------------------------------------
 Center     Atomic      Atomic             Coordinates (Angstroms)
 Number     Number       Type             X           Y           Z
 ---------------------------------------------------------------------
      1         14           0       -0.000013   -0.000006   -0.000001
      2          6           0        1.034425   -1.572190   -0.151981
      3          6           0       -1.787953   -0.374383   -0.477490
      4          6           0        0.695007    1.324478   -1.152225
      5          6           0        0.058534    0.622100    1.781696
      6          1           0       -0.341701   -0.131350    2.479355
      7          1           0       -0.537651    1.541196    1.901822
      8          1           0        1.091966    0.849547    2.089739
      9          1           0        1.019403   -1.959919   -1.183507
     10          1           0        0.651933   -2.365516    0.510550
     11          1           0        2.085573   -1.384587    0.120957
     12          1           0       -1.854234   -0.740389   -1.514912
     13          1           0       -2.417676    0.526620   -0.398407
     14          1           0       -2.221730   -1.145917    0.179150
     15          1           0        0.673841    0.989369   -2.201921
     16          1           0        1.739992    1.564665   -0.897423
     17          1           0        0.110378    2.256329   -1.085389
 ---------------------------------------------------------------------

 SCF Done:  E(RPBE1PBE) =  -448.871247016     A.U. after    1 cycles

 The electronic state is 1-A.
 Alpha  occ. eigenvalues --  -66.23976 -10.20734 -10.20734 -10.20734 -10.20734
 Alpha  occ. eigenvalues --   -5.30849  -3.64225  -3.64225  -3.64225  -0.73537
 Alpha  occ. eigenvalues --   -0.69013  -0.69013  -0.69013  -0.46724  -0.41890
 Alpha  occ. eigenvalues --   -0.41890  -0.41890  -0.40228  -0.40228  -0.38367
 Alpha  occ. eigenvalues --   -0.38367  -0.38367  -0.30103  -0.30103  -0.30103
 Alpha virt. eigenvalues --    0.05592   0.10195   0.10195   0.10195   0.11961
 Alpha virt. eigenvalues --    0.11961   0.11961   0.14769   0.14769   0.17652
 Alpha virt. eigenvalues --    0.17652   0.17652   0.18149   0.18149   0.18149

 Mulliken charges:
               1
     1  Si   0.336109
     2  C   -0.255717
     3  C   -0.255711
     4  C   -0.255719
     5  C   -0.255712
     6  H    0.057229
     7  H    0.057229
     8  H    0.057231
     9  H    0.057230
    10  H    0.057229
    11  H    0.057229
    12  H    0.057230
    13  H    0.057231
    14  H    0.057230
    15  H    0.057227
    16  H    0.057229
    17  H    0.057228
 Sum of Mulliken charges =  -0.00000

 Dipole moment (field-independent basis, Debye):
    X=             -0.0001    Y=             -0.0000    Z=              0.0000  Tot=              0.0001
 Quadrupole moment (field-independent basis, Debye-Ang):
   XX=            -41.7631   YY=            -41.7633   ZZ=            -41.7632
   XY=             -0.0000   XZ=              0.0001   YZ=             -0.0000

  Exact polarizability:  68.522   0.000  68.521   0.000   0.000  68.521
 Approx polarizability:  89.228  -0.000  89.227   0.000  -0.000  89.227

                      1                      2                      3
                      A                      A                      A
 Frequencies --    142.2386               165.3389               165.9957
 Red. masses --      1.0078                 1.0237                 1.0237
 Frc consts  --      0.0120                 0.0165                 0.0166
 IR Inten    --      0.0000                 0.0000                 0.0001

                      4                      5                      6
                      A                      A                      A
 Frequencies --    166.1827               181.8681               181.9901
 Red. masses --      1.0239                 2.2650                 2.2640
 Frc consts  --      0.0167                 0.0441                 0.0442
 IR Inten    --      0.0001                 0.0000                 0.0001

                      7                      8                      9
                      A                      A                      A
 Frequencies --    226.5584               226.7486               227.1087
 Red. masses --      2.3355                 2.3359                 2.3364
 Frc consts  --      0.0706                 0.0708                 0.0710
 IR Inten    --      2.1706                 2.1706                 2.1715

                     10                     11                     12
                      A                      A                      A
 Frequencies --    587.8575               673.0242               673.0564
 Red. masses --      3.4618                 1.1707                 1.1707
 Frc consts  --      0.7048                 0.3124                 0.3125
 IR Inten    --      0.0000                 0.0000                 0.0000

                     13                     14                     15
                      A                      A                      A
 Frequencies --    673.3247               699.4793               699.6720
 Red. masses --      1.1708                 2.7123                 2.7120
 Frc consts  --      0.3127                 0.7819                 0.7822
 IR Inten    --      0.0005                 9.8615                 9.8713

                     16                     17                     18
                      A                      A                      A
 Frequencies --    699.6747               819.9170               819.9675
 Red. masses --      2.7124                 1.3216                 1.3216
 Frc consts  --      0.7824                 0.5235                 0.5235
 IR Inten    --      9.8766                 0.0006                 0.0001

                     19                     20                     21
                      A                      A                      A
 Frequencies --    873.4471               873.4856               873.5378
 Red. masses --      1.7919                 1.7916                 1.7918
 Frc consts  --      0.8055                 0.8054                 0.8056
 IR Inten    --    134.0782               134.0972               134.0859

                     22                     23                     24
                      A                      A                      A
 Frequencies --   1256.7700              1256.8640              1256.9427
 Red. masses --      1.2757                 1.2757                 1.2755
 Frc consts  --      1.1872                 1.1873                 1.1873
 IR Inten    --     31.2848                31.2782                31.2469

                     25                     26                     27
                      A                      A                      A
 Frequencies --   1269.2583              1422.9604              1423.0312
 Red. masses --      1.2296                 1.0523                 1.0523
 Frc consts  --      1.1671                 1.2554                 1.2555
 IR Inten    --      0.0016                 0.0000                 0.0000

                     28                     29                     30
                      A                      A                      A
 Frequencies --   1423.0575              1426.6957              1426.7218
 Red. masses --      1.0523                 1.0485                 1.0485
 Frc consts  --      1.2556                 1.2574                 1.2575
 IR Inten    --      0.0001                 0.0000                 0.0001

                     31                     32                     33
                      A                      A                      A
 Frequencies --   1443.2601              1443.2836              1443.3999
 Red. masses --      1.0445                 1.0445                 1.0444
 Frc consts  --      1.2818                 1.2819                 1.2821
 IR Inten    --      5.4635                 5.4650                 5.4522

                     34                     35                     36
                      A                      A                      A
 Frequencies --   3050.3151              3050.3397              3050.3634
 Red. masses --      1.0356                 1.0356                 1.0356
 Frc consts  --      5.6774                 5.6775                 5.6776
 IR Inten    --     10.7720                10.7704                10.7707

                     37                     38                     39
                      A                      A                      A
 Frequencies --   3052.2474              3145.2082              3145.2226
 Red. masses --      1.0356                 1.1011                 1.1011
 Frc consts  --      5.6842                 6.4174                 6.4175
 IR Inten    --      0.0010                 0.0019                 0.0018

                     40                     41                     42
                      A                      A                      A
 Frequencies --   3145.9208              3145.9293              3145.9624
 Red. masses --      1.1012                 1.1012                 1.1012
 Frc consts  --      6.4209                 6.4210                 6.4211
 IR Inten    --      0.0028                 0.0012                 0.0057

                     43                     44                     45
                      A                      A                      A
 Frequencies --   3147.4841              3147.4880              3147.5085
 Red. masses --      1.1004                 1.1004                 1.1004
 Frc consts  --      6.4230                 6.4230                 6.4231
 IR Inten    --     25.4222                25.4275                25.4178

 - Thermochemistry -
 -------------------
 Temperature   298.150 Kelvin.  Pressure   1.00000 Atm.
 Atom     1 has atomic number 14 and mass  27.97693

 Molecular mass:    88.07083 amu.
 Principal axes and moments of inertia in atomic units:
                           1         2         3
     Eigenvalues --   588.22281 588.22725 588.22946
           X            0.99985  -0.01654  -0.00513
           Y            0.01641   0.99956  -0.02452
           Z            0.00553   0.02444   0.99969
 This molecule is an asymmetric top.
 Rotational symmetry number  1.
 Warning -- assumption of classical behavior for rotation
           may cause significant error
 Rotational temperatures (Kelvin)      0.14725     0.14725     0.14725
 Rotational constants (GHZ):           3.06813     3.06810     3.06809
 Zero-point vibrational energy     385895.6 (Joules/Mol)
                                   92.23126 (Kcal/Mol)
 Warning -- explicit consideration of  10 degrees of freedom as
           vibrations may cause significant error
 Vibrational temperatures:    204.65   237.89   238.83   239.10   261.67
          (Kelvin)            261.84   325.97   326.24   326.76   845.80
                              968.33   968.38   968.76  1006.39  1006.67
                             1006.68  1179.68  1179.75  1256.70  1256.75
                             1256.83  1808.21  1808.35  1808.46  1826.18
                             2047.32  2047.42  2047.46  2052.70  2052.73
                             2076.53  2076.56  2076.73  4388.72  4388.76
                             4388.79  4391.50  4525.25  4525.27  4526.28
                             4526.29  4526.34  4528.53  4528.53  4528.56

 Zero-point correction=                           0.146980 (Hartree/Particle)
 Thermal correction to Energy=                    0.156364
 Thermal correction to Enthalpy=                  0.157308
 Thermal correction to Gibbs Free Energy=         0.114444
 Sum of electronic and zero-point Energies=           -448.724267
 Sum of electronic and thermal Energies=              -448.714883
 Sum of electronic and thermal Enthalpies=            -448.713939
 Sum of electronic and thermal Free Energies=         -448.756803

                     E (Thermal)             CV                S
                      KCal/Mol        Cal/Mol-Kelvin    Cal/Mol-Kelvin
 Total                   98.120             33.133             90.214
 Electronic               0.000              0.000              0.000
 Translational            0.889              2.981             39.339
 Rotational               0.889              2.981             26.812
 Vibrational             96.342             27.172             24.062
 Vibration     1          0.616              1.911              2.774
 Vibration     2          0.624              1.885              2.488
 Vibration     3          0.624              1.884              2.480
 Vibration     4          0.624              1.884              2.478
 Vibration     5          0.630              1.864              2.309
 Vibration     6          0.630              1.864              2.308
 Vibration     7          0.650              1.801              1.906
 Vibration     8          0.650              1.800              1.905
 Vibration     9          0.651              1.800              1.902
 Vibration    10          0.945              1.058              0.471

                           ! Non-Optimized Parameters !

 1\1\GINC-NODE041\Freq\RPBE1PBE\CC-pVDZ\C4H12Si1\JS1212\10-Nov-2018\0\\
 #N Geom=AllCheck Guess=TCheck SCRF=Check GenChk RPBE1PBE/CC-pVDZ Freq\
 \Title Card Required\\0,1\Si,0.8208149734,0.8501248545,0.000019338\C,2
 .7089148337,0.8501371502,-0.0000159031\C,0.1914586376,0.2059056513,1.6
 59469575\C,0.1914536268,-0.2648875077,-1.3876342246\C,0.1914446202,2.6
 093539518,-0.2718117196\H,0.5434023648,3.2851191034,0.5244733055\H,-0.
 9101716086,2.6413144441,-0.2767677051\H,0.5434258947,3.0132615399,-1.2
 349168804\H,3.1065798691,-0.1656565734,0.1569260451\H,3.1066264925,1.4

 Normal termination of Gaussian 16 at Sat Nov 10 19:05:50 2018.
