 Gaussian 16, Revision A.03,
 Gaussian 16:  ES64L-G16RevA.03 25-Dec-2016

 ----------------------------------------------------------------------
 # genecp pbe1pbe EmpiricalDispersion=GD3BJ scrf=(SMD,solvent=water) ge
 om=allcheck
 ----------------------------------------------------------------------

 Structure from the checkpoint file:  "/scratch/js1212.730716/3-Dimer-GPOF-Disp.chk"
 -------------------
 Title Card Required
 -------------------
 Charge =  0 Multiplicity = 1

                         Standard orientation:
 ---------------------------------------------------------------------
 Center     Atomic      Atomic             Coordinates (Angstroms)
 Number     Number       Type             X           Y           Z
 ---------------------------------------------------------------------
      1         44           0        1.950960   -0.146534   -0.324074
      2          8           0        2.008316   -1.800293    0.924641
      3          6           0        1.908933    1.057682   -1.696066
      4         15           0        2.885992    1.338425    1.101477
      5          7           0        4.013109   -0.557675   -0.709750
      6          6           0        4.530596    1.602519    0.254510
      7          1           0        4.328264    2.353522   -0.528098
      8          1           0        5.311716    2.011520    0.911612
      9          6           0        4.980008    0.331835   -0.389847
     10          6           0        6.326504    0.064937   -0.624944
     11          1           0        7.075160    0.808815   -0.350607
     12          6           0        6.690548   -1.146945   -1.197810
     13          1           0        7.739072   -1.376740   -1.395268
     14          6           0        5.691843   -2.061105   -1.510104
     15          1           0        5.928280   -3.027757   -1.955936
     16          6           0        4.361174   -1.745881   -1.249709
     17          6           0        3.265391   -2.738175   -1.484205
     18          1           0        3.675017   -3.590363   -2.060686
     19          1           0        2.936744   -3.070470   -0.482541
     20          7           0        2.098010   -2.146982   -2.117422
     21          6           0        2.293389    3.137370    1.303429
     22          6           0        3.405725    4.105945    1.717518
     23          1           0        4.202194    4.168304    0.961482
     24          1           0        3.862463    3.864813    2.683057
     25          1           0        2.967743    5.114644    1.803287
     26          6           0        1.150825    3.176408    2.316825
     27          1           0        0.656975    4.161098    2.274086
     28          1           0        1.502384    3.029637    3.347102
     29          1           0        0.390991    2.413543    2.104851
     30          6           0        1.766618    3.600052   -0.052295
     31          1           0        0.949477    2.962483   -0.401867
     32          1           0        2.545158    3.606855   -0.828865
     33          1           0        1.387894    4.630733    0.046693
     34          6           0        3.335837    0.614294    2.803362
     35          6           0        4.045271    1.594701    3.735679
     36          1           0        3.398870    2.419774    4.063989
     37          1           0        4.959795    2.017705    3.291361
     38          1           0        4.351444    1.043655    4.640639
     39          6           0        4.262280   -0.583645    2.562891
     40          1           0        4.465894   -1.053564    3.540020
     41          1           0        5.233220   -0.285240    2.138417
     42          1           0        3.767157   -1.325931    1.920448
     43          6           0        2.049159    0.099261    3.450537
     44          1           0        2.304628   -0.408062    4.396462
     45          1           0        1.576868   -0.629555    2.778174
     46          1           0        1.338402    0.902391    3.683694
     47          6           0        1.222941   -1.153120   -4.234954
     48          1           0        0.485572   -1.925159   -4.499652
     49          1           0        1.568954   -0.687094   -5.169168
     50          1           0        0.714398   -0.385312   -3.638800
     51          6           0        0.936412   -3.026215   -2.000607
     52          1           0        0.065265   -2.477950   -2.380492
     53          1           0        0.773234   -3.161672   -0.921298
     54          6           0        1.031650   -4.376367   -2.699662
     55          1           0        1.184073   -4.274653   -3.785843
     56          1           0        0.090619   -4.926984   -2.550038
     57          1           0        1.845342   -5.000914   -2.299819
     58          6           0        2.407945   -1.721018   -3.482317
     59          1           0        2.853437   -2.560238   -4.059489
     60          1           0        3.192401   -0.950729   -3.405275
     61          8           0        0.000194   -0.443840    0.002088
     62         44           0       -1.950901   -0.145335    0.325073
     63          6           0       -1.910253    1.063394    1.693163
     64          8           0       -2.007090   -1.802856   -0.919082
     65         15           0       -2.885839    1.334887   -1.105822
     66          7           0       -2.098027   -2.139709    2.124497
     67          7           0       -4.013228   -0.555969    0.710839
     68          6           0       -3.264969   -2.733620    1.492865
     69          1           0       -3.674427   -3.583977    2.072142
     70          1           0       -2.935701   -3.069229    0.492523
     71          6           0       -4.361068   -1.742565    1.254522
     72          6           0       -5.691741   -2.057471    1.515265
     73          1           0       -5.928073   -3.022779    1.964051
     74          6           0       -6.690655   -1.144689    1.199547
     75          1           0       -7.739176   -1.374254    1.397296
     76          6           0       -6.326809    0.065490    0.622980
     77          1           0       -7.075610    0.808242    0.346002
     78          6           0       -4.980288    0.332121    0.387602
     79          6           0       -4.531047    1.600907   -0.260574
     80          1           0       -4.329596    2.354564    0.519703
     81          1           0       -5.311943    2.007382   -0.919498
     82          6           0       -3.334651    0.605287   -2.805598
     83          6           0       -4.043995    1.582539   -3.741292
     84          1           0       -4.349431    1.028586   -4.644728
     85          1           0       -3.397819    2.406912   -4.071776
     86          1           0       -4.958961    2.006465   -3.298766
     87          6           0       -2.047400    0.088721   -3.450405
     88          1           0       -2.302043   -0.421334   -4.395086
     89          1           0       -1.575572   -0.638082   -2.775522
     90          1           0       -1.336600    0.891305   -3.685282
     91          6           0       -4.260757   -0.592254   -2.561918
     92          1           0       -5.232021   -0.292926   -2.138820
     93          1           0       -3.765669   -1.332378   -1.916971
     94          1           0       -4.463719   -1.065224   -3.537707
     95          6           0       -2.294071    3.133591   -1.313173
     96          6           0       -3.406884    4.100431   -1.730086
     97          1           0       -4.203330    4.164714   -0.974203
     98          1           0       -3.863570    3.856238   -2.694886
     99          1           0       -2.969347    5.109058   -1.818883
    100          6           0       -1.767527    3.600438    0.041239
    101          1           0       -1.389138    4.630952   -0.060729
    102          1           0       -0.950223    2.964142    0.392756
    103          1           0       -2.546142    3.609256    0.817709
    104          6           0       -1.151578    3.170545   -2.326733
    105          1           0       -0.658555    4.155775   -2.286846
    106          1           0       -1.503027    3.020526   -3.356577
    107          1           0       -0.391065    2.408962   -2.112672
    108          6           0       -2.408567   -1.708928    3.487763
    109          1           0       -2.853994   -2.546189    4.067806
    110          1           0       -3.193236   -0.939176    3.407662
    111          6           0       -1.223897   -1.137973    4.238640
    112          1           0       -0.486722   -1.908992    4.506824
    113          1           0       -1.570282   -0.668074    5.170770
    114          1           0       -0.714994   -0.372672    3.639538
    115          6           0       -0.936013   -3.018913    2.011262
    116          1           0       -0.065329   -2.468921    2.389678
    117          1           0       -0.772281   -3.157942    0.932500
    118          6           0       -1.031019   -4.366703    2.714855
    119          1           0       -1.183970   -4.261451    3.800629
    120          1           0       -0.089663   -4.917365    2.567508
    121          1           0       -1.844221   -4.992971    2.316713
    122          8           0       -1.962975    1.738972    2.646358
    123          8           0        1.960538    1.730063   -2.651567
    124          1           0        1.039595   -1.822953    1.013949
    125          1           0       -1.038227   -1.826074   -1.006795
 ---------------------------------------------------------------------

 SCF Done:  E(RPBE1PBE) =  -3033.61569693     A.U. after   18 cycles

 The electronic state is 1-A.
 Alpha  occ. eigenvalues --  -77.25856 -77.25856 -19.24278 -19.24277 -19.12510
 Alpha  occ. eigenvalues --  -19.12508 -19.12225 -14.43016 -14.43015 -14.39529
 Alpha  occ. eigenvalues --  -14.39525 -10.30631 -10.30630 -10.28511 -10.28511
 Alpha  occ. eigenvalues --  -10.27892 -10.27891 -10.24860 -10.24859 -10.24792
 Alpha  occ. eigenvalues --  -10.24792 -10.24610 -10.24608 -10.24177 -10.24174
 Alpha  occ. eigenvalues --  -10.23988 -10.23986 -10.23709 -10.23709 -10.23622
 Alpha  occ. eigenvalues --  -10.23621 -10.23530 -10.23528 -10.23360 -10.23360
 Alpha  occ. eigenvalues --  -10.20728 -10.20727 -10.20687 -10.20687 -10.20562
 Alpha  occ. eigenvalues --  -10.20561 -10.20365 -10.20364 -10.20339 -10.20339
 Alpha  occ. eigenvalues --  -10.20302 -10.20300 -10.19830 -10.19830 -10.19756
 Alpha  occ. eigenvalues --  -10.19753  -6.63196  -6.63196  -4.76862  -4.76862
 Alpha  occ. eigenvalues --   -4.76781  -4.76781  -4.76589  -4.76588  -3.04473
 Alpha  occ. eigenvalues --   -3.04472  -1.88362  -1.88358  -1.87420  -1.87407
 Alpha  occ. eigenvalues --   -1.86450  -1.86442  -1.11791  -1.11790  -0.99922
 Alpha  occ. eigenvalues --   -0.99913  -0.95642  -0.95609  -0.92355  -0.92071
 Alpha  occ. eigenvalues --   -0.85269  -0.85016  -0.84987  -0.83598  -0.83572
 Alpha  occ. eigenvalues --   -0.82921  -0.82856  -0.82452  -0.82399  -0.77508
 Alpha  occ. eigenvalues --   -0.77489  -0.76576  -0.76513  -0.73735  -0.73713
 Alpha  occ. eigenvalues --   -0.70561  -0.70390  -0.70150  -0.70060  -0.69653
 Alpha  occ. eigenvalues --   -0.69641  -0.69411  -0.69163  -0.69033  -0.69000
 Alpha  occ. eigenvalues --   -0.65655  -0.65600  -0.64980  -0.64972  -0.63426
 Alpha  occ. eigenvalues --   -0.63384  -0.61794  -0.61719  -0.57010  -0.56968
 Alpha  occ. eigenvalues --   -0.56539  -0.56495  -0.56093  -0.55697  -0.53244
 Alpha  occ. eigenvalues --   -0.53155  -0.52960  -0.52779  -0.51464  -0.51418
 Alpha  occ. eigenvalues --   -0.49872  -0.49733  -0.49338  -0.49334  -0.48448
 Alpha  occ. eigenvalues --   -0.48340  -0.47403  -0.47053  -0.46469  -0.46356
 Alpha  occ. eigenvalues --   -0.46198  -0.46147  -0.45839  -0.45781  -0.45750
 Alpha  occ. eigenvalues --   -0.45248  -0.45035  -0.44946  -0.44816  -0.44546
 Alpha  occ. eigenvalues --   -0.44356  -0.44059  -0.43988  -0.43923  -0.43874
 Alpha  occ. eigenvalues --   -0.43303  -0.43175  -0.42999  -0.42834  -0.42777
 Alpha  occ. eigenvalues --   -0.42523  -0.42332  -0.41830  -0.41758  -0.41430
 Alpha  occ. eigenvalues --   -0.41219  -0.41208  -0.40878  -0.40481  -0.40248
 Alpha  occ. eigenvalues --   -0.40026  -0.39871  -0.39141  -0.38950  -0.38644
 Alpha  occ. eigenvalues --   -0.38491  -0.38066  -0.38064  -0.37959  -0.37870
 Alpha  occ. eigenvalues --   -0.37792  -0.37667  -0.37474  -0.37468  -0.37021
 Alpha  occ. eigenvalues --   -0.36517  -0.36419  -0.36250  -0.36141  -0.36119
 Alpha  occ. eigenvalues --   -0.35973  -0.35548  -0.35474  -0.35264  -0.34987
 Alpha  occ. eigenvalues --   -0.34981  -0.34476  -0.34385  -0.34341  -0.33841
 Alpha  occ. eigenvalues --   -0.33581  -0.33543  -0.33321  -0.33016  -0.32860
 Alpha  occ. eigenvalues --   -0.32720  -0.32396  -0.32267  -0.31843  -0.31842
 Alpha  occ. eigenvalues --   -0.31509  -0.31069  -0.30859  -0.30757  -0.30131
 Alpha  occ. eigenvalues --   -0.29909  -0.29790  -0.28022  -0.27345  -0.26833
 Alpha  occ. eigenvalues --   -0.26767  -0.26457  -0.26113  -0.24956  -0.24896
 Alpha  occ. eigenvalues --   -0.23068  -0.21384  -0.21188  -0.20945  -0.18771
 Alpha  occ. eigenvalues --   -0.17077
 Alpha virt. eigenvalues --   -0.04145  -0.03901  -0.02148  -0.02124  -0.01744
 Alpha virt. eigenvalues --   -0.01701   0.00780   0.01171   0.01499   0.02269
 Alpha virt. eigenvalues --    0.02484   0.03319   0.03332   0.03543   0.03599

 Mulliken charges:
               1
     1  Ru   1.006180
     2  O   -0.754772
     3  C   -0.167191
     4  P    0.019320
     5  N   -0.162800
     6  C   -0.210092
     7  H    0.164473
     8  H    0.150305
     9  C    0.037656
    10  C   -0.134108
    11  H    0.162490
    12  C   -0.138872
    13  H    0.162493
    14  C   -0.149034
    15  H    0.157538
    16  C    0.079746
    17  C   -0.124396
    18  H    0.115453
    19  H    0.167540
    20  N   -0.161534
    21  C    0.029435
    22  C   -0.342598
    23  H    0.117305
    24  H    0.125991
    25  H    0.110877
    26  C   -0.376853
    27  H    0.113666
    28  H    0.129594
    29  H    0.138632
    30  C   -0.339490
    31  H    0.080081
    32  H    0.130548
    33  H    0.117880
    34  C    0.021456
    35  C   -0.337561
    36  H    0.118792
    37  H    0.116455
    38  H    0.108899
    39  C   -0.387450
    40  H    0.108291
    41  H    0.116861
    42  H    0.153396
    43  C   -0.349117
    44  H    0.107473
    45  H    0.123679
    46  H    0.122411
    47  C   -0.342479
    48  H    0.113760
    49  H    0.119176
    50  H    0.116922
    51  C   -0.126364
    52  H    0.106977
    53  H    0.118743
    54  C   -0.339261
    55  H    0.110504
    56  H    0.118851
    57  H    0.112287
    58  C   -0.112019
    59  H    0.101676
    60  H    0.130249
    61  O   -0.972093
    62  Ru   1.006292
    63  C   -0.167278
    64  O   -0.754713
    65  P    0.019262
    66  N   -0.161630
    67  N   -0.162779
    68  C   -0.124273
    69  H    0.115494
    70  H    0.167529
    71  C    0.079737
    72  C   -0.149045
    73  H    0.157549
    74  C   -0.138864
    75  H    0.162496
    76  C   -0.134115
    77  H    0.162492
    78  C    0.037643
    79  C   -0.210080
    80  H    0.164482
    81  H    0.150309
    82  C    0.021546
    83  C   -0.337593
    84  H    0.108895
    85  H    0.118797
    86  H    0.116450
    87  C   -0.349149
    88  H    0.107462
    89  H    0.123741
    90  H    0.122375
    91  C   -0.387507
    92  H    0.116852
    93  H    0.153409
    94  H    0.108293
    95  C    0.029394
    96  C   -0.342598
    97  H    0.117308
    98  H    0.125987
    99  H    0.110883
   100  C   -0.339451
   101  H    0.117861
   102  H    0.080083
   103  H    0.130534
   104  C   -0.376904
   105  H    0.113636
   106  H    0.129580
   107  H    0.138717
   108  C   -0.112007
   109  H    0.101715
   110  H    0.130286
   111  C   -0.342520
   112  H    0.113784
   113  H    0.119207
   114  H    0.116902
   115  C   -0.126344
   116  H    0.107016
   117  H    0.118759
   118  C   -0.339240
   119  H    0.110512
   120  H    0.118863
   121  H    0.112294
   122  O   -0.304055
   123  O   -0.304071
   124  H    0.281953
   125  H    0.281864
 Sum of Mulliken charges =  -0.00000

 Dipole moment (field-independent basis, Debye):
    X=             -0.0011    Y=              4.8053    Z=             -0.0074  Tot=              4.8053
 Quadrupole moment (field-independent basis, Debye-Ang):
   XX=           -251.5145   YY=           -346.6588   ZZ=           -365.2459
   XY=              0.0158   XZ=             -8.6670   YZ=             -0.0397

 Normal termination of Gaussian 16 at Thu Apr 16 02:46:17 2020.
