 Gaussian 16, Revision A.03,
 Gaussian 16:  ES64L-G16RevA.03 25-Dec-2016

 ----------------------------------------------------------------------
 # genecp pbe1pbe EmpiricalDispersion=GD3BJ scrf=(SMD,solvent=water) td
 =nstates=25 geom=allcheck
 ----------------------------------------------------------------------

 Structure from the checkpoint file:  "/scratch/js1212.730715/3-Dimer-GPOF-Disp.chk"
 -------------------
 Title Card Required
 -------------------
 Charge =  0 Multiplicity = 1

                         Standard orientation:
 ---------------------------------------------------------------------
 Center     Atomic      Atomic             Coordinates (Angstroms)
 Number     Number       Type             X           Y           Z
 ---------------------------------------------------------------------
      1         44           0        1.950960   -0.146534   -0.324074
      2          8           0        2.008316   -1.800293    0.924641
      3          6           0        1.908933    1.057682   -1.696066
      4         15           0        2.885992    1.338425    1.101477
      5          7           0        4.013109   -0.557675   -0.709750
      6          6           0        4.530596    1.602519    0.254510
      7          1           0        4.328264    2.353522   -0.528098
      8          1           0        5.311716    2.011520    0.911612
      9          6           0        4.980008    0.331835   -0.389847
     10          6           0        6.326504    0.064937   -0.624944
     11          1           0        7.075160    0.808815   -0.350607
     12          6           0        6.690548   -1.146945   -1.197810
     13          1           0        7.739072   -1.376740   -1.395268
     14          6           0        5.691843   -2.061105   -1.510104
     15          1           0        5.928280   -3.027757   -1.955936
     16          6           0        4.361174   -1.745881   -1.249709
     17          6           0        3.265391   -2.738175   -1.484205
     18          1           0        3.675017   -3.590363   -2.060686
     19          1           0        2.936744   -3.070470   -0.482541
     20          7           0        2.098010   -2.146982   -2.117422
     21          6           0        2.293389    3.137370    1.303429
     22          6           0        3.405725    4.105945    1.717518
     23          1           0        4.202194    4.168304    0.961482
     24          1           0        3.862463    3.864813    2.683057
     25          1           0        2.967743    5.114644    1.803287
     26          6           0        1.150825    3.176408    2.316825
     27          1           0        0.656975    4.161098    2.274086
     28          1           0        1.502384    3.029637    3.347102
     29          1           0        0.390991    2.413543    2.104851
     30          6           0        1.766618    3.600052   -0.052295
     31          1           0        0.949477    2.962483   -0.401867
     32          1           0        2.545158    3.606855   -0.828865
     33          1           0        1.387894    4.630733    0.046693
     34          6           0        3.335837    0.614294    2.803362
     35          6           0        4.045271    1.594701    3.735679
     36          1           0        3.398870    2.419774    4.063989
     37          1           0        4.959795    2.017705    3.291361
     38          1           0        4.351444    1.043655    4.640639
     39          6           0        4.262280   -0.583645    2.562891
     40          1           0        4.465894   -1.053564    3.540020
     41          1           0        5.233220   -0.285240    2.138417
     42          1           0        3.767157   -1.325931    1.920448
     43          6           0        2.049159    0.099261    3.450537
     44          1           0        2.304628   -0.408062    4.396462
     45          1           0        1.576868   -0.629555    2.778174
     46          1           0        1.338402    0.902391    3.683694
     47          6           0        1.222941   -1.153120   -4.234954
     48          1           0        0.485572   -1.925159   -4.499652
     49          1           0        1.568954   -0.687094   -5.169168
     50          1           0        0.714398   -0.385312   -3.638800
     51          6           0        0.936412   -3.026215   -2.000607
     52          1           0        0.065265   -2.477950   -2.380492
     53          1           0        0.773234   -3.161672   -0.921298
     54          6           0        1.031650   -4.376367   -2.699662
     55          1           0        1.184073   -4.274653   -3.785843
     56          1           0        0.090619   -4.926984   -2.550038
     57          1           0        1.845342   -5.000914   -2.299819
     58          6           0        2.407945   -1.721018   -3.482317
     59          1           0        2.853437   -2.560238   -4.059489
     60          1           0        3.192401   -0.950729   -3.405275
     61          8           0        0.000194   -0.443840    0.002088
     62         44           0       -1.950901   -0.145335    0.325073
     63          6           0       -1.910253    1.063394    1.693163
     64          8           0       -2.007090   -1.802856   -0.919082
     65         15           0       -2.885839    1.334887   -1.105822
     66          7           0       -2.098027   -2.139709    2.124497
     67          7           0       -4.013228   -0.555969    0.710839
     68          6           0       -3.264969   -2.733620    1.492865
     69          1           0       -3.674427   -3.583977    2.072142
     70          1           0       -2.935701   -3.069229    0.492523
     71          6           0       -4.361068   -1.742565    1.254522
     72          6           0       -5.691741   -2.057471    1.515265
     73          1           0       -5.928073   -3.022779    1.964051
     74          6           0       -6.690655   -1.144689    1.199547
     75          1           0       -7.739176   -1.374254    1.397296
     76          6           0       -6.326809    0.065490    0.622980
     77          1           0       -7.075610    0.808242    0.346002
     78          6           0       -4.980288    0.332121    0.387602
     79          6           0       -4.531047    1.600907   -0.260574
     80          1           0       -4.329596    2.354564    0.519703
     81          1           0       -5.311943    2.007382   -0.919498
     82          6           0       -3.334651    0.605287   -2.805598
     83          6           0       -4.043995    1.582539   -3.741292
     84          1           0       -4.349431    1.028586   -4.644728
     85          1           0       -3.397819    2.406912   -4.071776
     86          1           0       -4.958961    2.006465   -3.298766
     87          6           0       -2.047400    0.088721   -3.450405
     88          1           0       -2.302043   -0.421334   -4.395086
     89          1           0       -1.575572   -0.638082   -2.775522
     90          1           0       -1.336600    0.891305   -3.685282
     91          6           0       -4.260757   -0.592254   -2.561918
     92          1           0       -5.232021   -0.292926   -2.138820
     93          1           0       -3.765669   -1.332378   -1.916971
     94          1           0       -4.463719   -1.065224   -3.537707
     95          6           0       -2.294071    3.133591   -1.313173
     96          6           0       -3.406884    4.100431   -1.730086
     97          1           0       -4.203330    4.164714   -0.974203
     98          1           0       -3.863570    3.856238   -2.694886
     99          1           0       -2.969347    5.109058   -1.818883
    100          6           0       -1.767527    3.600438    0.041239
    101          1           0       -1.389138    4.630952   -0.060729
    102          1           0       -0.950223    2.964142    0.392756
    103          1           0       -2.546142    3.609256    0.817709
    104          6           0       -1.151578    3.170545   -2.326733
    105          1           0       -0.658555    4.155775   -2.286846
    106          1           0       -1.503027    3.020526   -3.356577
    107          1           0       -0.391065    2.408962   -2.112672
    108          6           0       -2.408567   -1.708928    3.487763
    109          1           0       -2.853994   -2.546189    4.067806
    110          1           0       -3.193236   -0.939176    3.407662
    111          6           0       -1.223897   -1.137973    4.238640
    112          1           0       -0.486722   -1.908992    4.506824
    113          1           0       -1.570282   -0.668074    5.170770
    114          1           0       -0.714994   -0.372672    3.639538
    115          6           0       -0.936013   -3.018913    2.011262
    116          1           0       -0.065329   -2.468921    2.389678
    117          1           0       -0.772281   -3.157942    0.932500
    118          6           0       -1.031019   -4.366703    2.714855
    119          1           0       -1.183970   -4.261451    3.800629
    120          1           0       -0.089663   -4.917365    2.567508
    121          1           0       -1.844221   -4.992971    2.316713
    122          8           0       -1.962975    1.738972    2.646358
    123          8           0        1.960538    1.730063   -2.651567
    124          1           0        1.039595   -1.822953    1.013949
    125          1           0       -1.038227   -1.826074   -1.006795
 ---------------------------------------------------------------------

 SCF Done:  E(RPBE1PBE) =  -3033.00831889     A.U. after   18 cycles

 Excitation energies and oscillator strengths:

 Excited State   1:      Singlet-A      2.2947 eV  540.30 nm  f=0.0549  <S**2>=0.000
     216 -> 225       -0.10499
     220 -> 225        0.24784
     221 -> 222        0.22728
     221 -> 224        0.52491
     221 -> 227       -0.20146
 This state for optimization and/or second-order correction.
 Total Energy, E(TD-HF/TD-DFT) =  -3032.92398869
 Copying the excited state density for this state as the 1-particle RhoCI density.

 Excited State   2:      Singlet-A      2.4169 eV  512.98 nm  f=0.0115  <S**2>=0.000
     216 -> 224       -0.10934
     217 -> 225        0.12624
     220 -> 222        0.12222
     220 -> 224        0.27013
     220 -> 227       -0.10457
     221 -> 225        0.54523
     221 -> 226       -0.14443

 Excited State   3:      Singlet-A      2.7660 eV  448.24 nm  f=0.1056  <S**2>=0.000
     220 -> 223       -0.12968
     220 -> 225       -0.14414
     221 -> 222        0.63633
     221 -> 224       -0.14609

 Excited State   4:      Singlet-A      2.8379 eV  436.89 nm  f=0.0053  <S**2>=0.000
     220 -> 222       -0.15523
     220 -> 224        0.14768
     221 -> 223        0.65462

 Excited State   5:      Singlet-A      2.9220 eV  424.31 nm  f=0.0000  <S**2>=0.000
     217 -> 225        0.21431
     220 -> 222        0.32318
     220 -> 224        0.40870
     220 -> 227       -0.15845
     221 -> 225       -0.33750

 Excited State   6:      Singlet-A      2.9376 eV  422.06 nm  f=0.0086  <S**2>=0.000
     217 -> 222        0.11099
     217 -> 224        0.23133
     220 -> 223       -0.19513
     220 -> 225        0.49629
     220 -> 226       -0.13077
     221 -> 224       -0.29322

 Excited State   7:      Singlet-A      3.2433 eV  382.28 nm  f=0.0035  <S**2>=0.000
     217 -> 223       -0.10859
     217 -> 225       -0.11747
     220 -> 222        0.57067
     220 -> 224       -0.24167
     221 -> 223        0.21873

 Excited State   8:      Singlet-A      3.2507 eV  381.41 nm  f=0.0481  <S**2>=0.000
     217 -> 222       -0.11789
     217 -> 224        0.10030
     220 -> 223        0.63505
     220 -> 225        0.13223
     221 -> 222        0.14431
     221 -> 228       -0.11421

 Excited State   9:      Singlet-A      3.4098 eV  363.61 nm  f=0.0026  <S**2>=0.000
     219 -> 225       -0.13417
     221 -> 224        0.17182
     221 -> 227        0.56617
     221 -> 228        0.26424

 Excited State  10:      Singlet-A      3.4170 eV  362.85 nm  f=0.0002  <S**2>=0.000
     220 -> 227        0.11180
     221 -> 225        0.17031
     221 -> 226        0.66076

 Excited State  11:      Singlet-A      3.4214 eV  362.38 nm  f=0.0005  <S**2>=0.000
     217 -> 225       -0.16976
     218 -> 223        0.15599
     218 -> 225       -0.34575
     219 -> 222        0.31313
     219 -> 224        0.36077
     219 -> 227       -0.12599

 Excited State  12:      Singlet-A      3.4306 eV  361.40 nm  f=0.0446  <S**2>=0.000
     218 -> 222       -0.25131
     218 -> 224       -0.31992
     218 -> 227        0.10741
     219 -> 223       -0.18367
     219 -> 225        0.36883
     221 -> 227        0.25136

 Excited State  13:      Singlet-A      3.4496 eV  359.41 nm  f=0.0044  <S**2>=0.000
     218 -> 224       -0.10584
     221 -> 224       -0.18445
     221 -> 227       -0.17197
     221 -> 228        0.57992

 Excited State  14:      Singlet-A      3.6967 eV  335.39 nm  f=0.0009  <S**2>=0.000
     217 -> 223        0.11307
     218 -> 223        0.37324
     218 -> 225        0.17480
     219 -> 222        0.44596
     219 -> 224       -0.24221
     220 -> 228       -0.12864

 Excited State  15:      Singlet-A      3.7075 eV  334.42 nm  f=0.0124  <S**2>=0.000
     218 -> 222        0.38514
     218 -> 224       -0.21675
     219 -> 223        0.45838
     219 -> 225        0.22275

 Excited State  16:      Singlet-A      3.8038 eV  325.95 nm  f=0.1290  <S**2>=0.000
     216 -> 225        0.13425
     217 -> 222        0.40068
     217 -> 224        0.30777
     217 -> 227       -0.13024
     218 -> 222       -0.17303
     218 -> 224       -0.16414
     220 -> 225       -0.28615

 Excited State  17:      Singlet-A      3.8689 eV  320.47 nm  f=0.0000  <S**2>=0.000
     216 -> 222       -0.12484
     216 -> 224       -0.21629
     217 -> 223        0.13658
     217 -> 225       -0.23590
     217 -> 226        0.10460
     218 -> 225        0.24821
     219 -> 222        0.10561
     220 -> 224        0.20559
     220 -> 227        0.25500
     220 -> 228        0.29695
     221 -> 235        0.10520

 Excited State  18:      Singlet-A      3.8832 eV  319.28 nm  f=0.0000  <S**2>=0.000
     217 -> 223       -0.10398
     217 -> 226       -0.11099
     220 -> 224       -0.27307
     220 -> 227       -0.30714
     220 -> 228        0.45756
     220 -> 236        0.10083

 Excited State  19:      Singlet-A      3.8943 eV  318.37 nm  f=0.0108  <S**2>=0.000
     217 -> 227        0.10770
     220 -> 225        0.14437
     220 -> 226        0.64185
     221 -> 227       -0.12932

 Excited State  20:      Singlet-A      3.9198 eV  316.30 nm  f=0.0019  <S**2>=0.000
     216 -> 224        0.13978
     217 -> 223       -0.22380
     217 -> 225        0.23711
     218 -> 223        0.14172
     218 -> 225       -0.12566
     220 -> 227        0.48783
     220 -> 228        0.20171

 Excited State  21:      Singlet-A      3.9980 eV  310.11 nm  f=0.0036  <S**2>=0.000
     216 -> 225       -0.12457
     217 -> 222        0.40238
     217 -> 224       -0.24678
     217 -> 228       -0.13535
     218 -> 222       -0.16319
     218 -> 224        0.13666
     219 -> 225        0.10152
     220 -> 223        0.11358
     221 -> 229        0.15528
     221 -> 231        0.24059
     221 -> 233       -0.11647

 Excited State  22:      Singlet-A      4.0233 eV  308.17 nm  f=0.0014  <S**2>=0.000
     216 -> 224        0.14012
     217 -> 223        0.52610
     217 -> 225        0.17333
     218 -> 223       -0.24511
     218 -> 225       -0.12277
     220 -> 222        0.13037

 Excited State  23:      Singlet-A      4.0316 eV  307.53 nm  f=0.0221  <S**2>=0.000
     217 -> 222       -0.21348
     217 -> 224        0.18712
     220 -> 225       -0.10436
     220 -> 226        0.13684
     220 -> 232       -0.12369
     221 -> 229        0.25796
     221 -> 231        0.42398
     221 -> 233       -0.10969
     221 -> 236        0.17222
     221 -> 238       -0.10505

 Excited State  24:      Singlet-A      4.0948 eV  302.78 nm  f=0.0047  <S**2>=0.000
     217 -> 222       -0.21770
     217 -> 224       -0.11425
     218 -> 222       -0.40873
     219 -> 223        0.44521
     219 -> 225       -0.19162

 Excited State  25:      Singlet-A      4.0971 eV  302.62 nm  f=0.0033  <S**2>=0.000
     216 -> 222        0.12911
     217 -> 223        0.23603
     217 -> 225       -0.24480
     218 -> 223        0.40373
     219 -> 222       -0.36788
     219 -> 224       -0.11403

 The electronic state is 1-A.
 Alpha  occ. eigenvalues --  -77.25873 -77.25873 -19.25660 -19.25659 -19.14012
 Alpha  occ. eigenvalues --  -19.13906 -19.13905 -14.44091 -14.44090 -14.40387
 Alpha  occ. eigenvalues --  -14.40383 -10.31371 -10.31370 -10.29240 -10.29239
 Alpha  occ. eigenvalues --  -10.28619 -10.28618 -10.25604 -10.25603 -10.25363
 Alpha  occ. eigenvalues --  -10.25362 -10.25095 -10.25093 -10.24937 -10.24934
 Alpha  occ. eigenvalues --  -10.24771 -10.24770 -10.24525 -10.24525 -10.24432
 Alpha  occ. eigenvalues --  -10.24432 -10.24292 -10.24290 -10.24199 -10.24199
 Alpha  occ. eigenvalues --  -10.21705 -10.21705 -10.21679 -10.21679 -10.21537
 Alpha  occ. eigenvalues --  -10.21536 -10.21383 -10.21382 -10.21315 -10.21315
 Alpha  occ. eigenvalues --  -10.21309 -10.21308 -10.20759 -10.20758 -10.20702
 Alpha  occ. eigenvalues --  -10.20699  -6.63731  -6.63730  -4.77366  -4.77365
 Alpha  occ. eigenvalues --   -4.77283  -4.77283  -4.77096  -4.77095  -3.04292
 Alpha  occ. eigenvalues --   -3.04292  -1.88220  -1.88216  -1.87265  -1.87252
 Alpha  occ. eigenvalues --   -1.86261  -1.86254  -1.12116  -1.12115  -1.00135
 Alpha  occ. eigenvalues --   -1.00126  -0.95744  -0.95714  -0.92170  -0.91876
 Alpha  occ. eigenvalues --   -0.85279  -0.85066  -0.85053  -0.83744  -0.83716
 Alpha  occ. eigenvalues --   -0.83020  -0.82962  -0.82457  -0.82400  -0.77503
 Alpha  occ. eigenvalues --   -0.77484  -0.76616  -0.76554  -0.73813  -0.73793
 Alpha  occ. eigenvalues --   -0.70523  -0.70355  -0.70120  -0.70033  -0.69682
 Alpha  occ. eigenvalues --   -0.69669  -0.69366  -0.69127  -0.68974  -0.68940
 Alpha  occ. eigenvalues --   -0.65750  -0.65699  -0.64939  -0.64928  -0.63474
 Alpha  occ. eigenvalues --   -0.63434  -0.61841  -0.61769  -0.56941  -0.56913
 Alpha  occ. eigenvalues --   -0.56553  -0.56498  -0.56026  -0.55633  -0.53186
 Alpha  occ. eigenvalues --   -0.53083  -0.52879  -0.52716  -0.51384  -0.51338
 Alpha  occ. eigenvalues --   -0.49738  -0.49608  -0.49250  -0.49237  -0.48338
 Alpha  occ. eigenvalues --   -0.48230  -0.47263  -0.46917  -0.46361  -0.46262
 Alpha  occ. eigenvalues --   -0.46056  -0.46011  -0.45722  -0.45640  -0.45606
 Alpha  occ. eigenvalues --   -0.45123  -0.44893  -0.44803  -0.44662  -0.44374
 Alpha  occ. eigenvalues --   -0.44245  -0.43906  -0.43813  -0.43770  -0.43758
 Alpha  occ. eigenvalues --   -0.43154  -0.43004  -0.42819  -0.42668  -0.42609
 Alpha  occ. eigenvalues --   -0.42409  -0.42208  -0.41722  -0.41664  -0.41269
 Alpha  occ. eigenvalues --   -0.41059  -0.41031  -0.40643  -0.40336  -0.40090
 Alpha  occ. eigenvalues --   -0.39843  -0.39695  -0.38994  -0.38769  -0.38483
 Alpha  occ. eigenvalues --   -0.38317  -0.37895  -0.37882  -0.37768  -0.37685
 Alpha  occ. eigenvalues --   -0.37633  -0.37500  -0.37326  -0.37326  -0.36890
 Alpha  occ. eigenvalues --   -0.36351  -0.36262  -0.36107  -0.35986  -0.35965
 Alpha  occ. eigenvalues --   -0.35789  -0.35399  -0.35319  -0.35129  -0.34843
 Alpha  occ. eigenvalues --   -0.34827  -0.34344  -0.34230  -0.34194  -0.33693
 Alpha  occ. eigenvalues --   -0.33432  -0.33401  -0.33155  -0.32873  -0.32705
 Alpha  occ. eigenvalues --   -0.32576  -0.32290  -0.32117  -0.31718  -0.31712
 Alpha  occ. eigenvalues --   -0.31314  -0.30984  -0.30614  -0.30610  -0.29986
 Alpha  occ. eigenvalues --   -0.29794  -0.29651  -0.27723  -0.27028  -0.26624
 Alpha  occ. eigenvalues --   -0.26590  -0.26287  -0.25815  -0.24760  -0.24716
 Alpha  occ. eigenvalues --   -0.22882  -0.21168  -0.20892  -0.20601  -0.18511
 Alpha  occ. eigenvalues --   -0.16803
 Alpha virt. eigenvalues --   -0.03860  -0.03603  -0.01885  -0.01853  -0.01436
 Alpha virt. eigenvalues --   -0.01397   0.01092   0.01568   0.01785   0.02630
 Alpha virt. eigenvalues --    0.02884   0.03678   0.03689   0.04100   0.04347

 Mulliken charges:
               1
     1  Ru   0.199811
     2  O   -0.502094
     3  C   -0.040726
     4  P    0.153386
     5  N   -0.301051
     6  C   -0.087319
     7  H    0.129443
     8  H    0.098342
     9  C    0.050681
    10  C   -0.041080
    11  H    0.034209
    12  C    0.078033
    13  H    0.044456
    14  C   -0.037034
    15  H    0.033146
    16  C   -0.000879
    17  C    0.132777
    18  H    0.051647
    19  H    0.113396
    20  N   -0.332352
    21  C   -0.473370
    22  C   -0.003907
    23  H    0.061759
    24  H    0.043645
    25  H    0.050124
    26  C   -0.039943
    27  H    0.053088
    28  H    0.064825
    29  H    0.116171
    30  C   -0.032896
    31  H    0.107196
    32  H    0.067110
    33  H    0.051882
    34  C   -0.437046
    35  C   -0.002922
    36  H    0.064833
    37  H    0.061197
    38  H    0.048065
    39  C   -0.040785
    40  H    0.044367
    41  H    0.059722
    42  H    0.116631
    43  C   -0.052973
    44  H    0.048599
    45  H    0.092558
    46  H    0.059694
    47  C   -0.141711
    48  H    0.064238
    49  H    0.063103
    50  H    0.100240
    51  C   -0.075535
    52  H    0.093776
    53  H    0.106290
    54  C   -0.076922
    55  H    0.056411
    56  H    0.059889
    57  H    0.063816
    58  C    0.001850
    59  H    0.038948
    60  H    0.083454
    61  O   -0.718766
    62  Ru   0.199708
    63  C   -0.040771
    64  O   -0.502103
    65  P    0.153443
    66  N   -0.332429
    67  N   -0.301018
    68  C    0.132811
    69  H    0.051692
    70  H    0.113434
    71  C   -0.000859
    72  C   -0.037046
    73  H    0.033152
    74  C    0.078029
    75  H    0.044460
    76  C   -0.041061
    77  H    0.034208
    78  C    0.050705
    79  C   -0.087390
    80  H    0.129458
    81  H    0.098337
    82  C   -0.436989
    83  C   -0.002928
    84  H    0.048065
    85  H    0.064798
    86  H    0.061196
    87  C   -0.053049
    88  H    0.048559
    89  H    0.092577
    90  H    0.059674
    91  C   -0.040792
    92  H    0.059705
    93  H    0.116608
    94  H    0.044360
    95  C   -0.473397
    96  C   -0.003911
    97  H    0.061757
    98  H    0.043650
    99  H    0.050123
   100  C   -0.032883
   101  H    0.051878
   102  H    0.107118
   103  H    0.067106
   104  C   -0.039909
   105  H    0.053062
   106  H    0.064768
   107  H    0.116054
   108  C    0.001878
   109  H    0.038975
   110  H    0.083476
   111  C   -0.141730
   112  H    0.064250
   113  H    0.063136
   114  H    0.100266
   115  C   -0.075584
   116  H    0.093909
   117  H    0.106360
   118  C   -0.076898
   119  H    0.056423
   120  H    0.059904
   121  H    0.063826
   122  O   -0.190683
   123  O   -0.190693
   124  H    0.207828
   125  H    0.207895
 Sum of Mulliken charges =  -0.00000

 Dipole moment (field-independent basis, Debye):
    X=             -0.0010    Y=              4.8475    Z=             -0.0074  Tot=              4.8475
 Quadrupole moment (field-independent basis, Debye-Ang):
   XX=           -249.4604   YY=           -342.9144   ZZ=           -361.2872
   XY=              0.0161   XZ=             -8.2834   YZ=             -0.0387

 Normal termination of Gaussian 16 at Thu Apr 16 05:05:55 2020.
