 Gaussian 16, Revision A.03,
 Gaussian 16:  ES64L-G16RevA.03 25-Dec-2016

 ----------------------------------------------------------------------
 # genecp pbe1pbe EmpiricalDispersion=GD3BJ scrf=(SMD,solvent=water) td
 =nstates=25 geom=allcheck
 ----------------------------------------------------------------------

 Structure from the checkpoint file:  "/scratch/js1212.769347/3-Full-GP-Disp-TD-SMD-NStates25.chk"
 -------------------
 Title Card Required
 -------------------
 Charge =  0 Multiplicity = 1

                         Standard orientation:
 ---------------------------------------------------------------------
 Center     Atomic      Atomic             Coordinates (Angstroms)
 Number     Number       Type             X           Y           Z
 ---------------------------------------------------------------------
      1          7           0       -0.714614    1.411452   -0.055521
      2          6           0       -1.937253    1.873549    0.261832
      3          6           0        0.194590    2.207231   -0.652389
      4          6           0       -2.281284    3.202664    0.053608
      5          6           0       -1.331138    4.060303   -0.497172
      6          6           0       -0.087730    3.557090   -0.861706
      7          6           0       -2.850433    0.844287    0.855282
      8          1           0       -3.279592    3.554365    0.315619
      9          1           0       -1.568833    5.112484   -0.663414
     10          1           0        0.661920    4.197075   -1.328171
     11          6           0        1.457211    1.551827   -1.117836
     12          7           0       -2.724110   -0.455342    0.169506
     13          1           0       -3.891597    1.210429    0.861212
     14          1           0       -2.556080    0.686534    1.905735
     15          1           0        1.243037    1.167366   -2.130265
     16         15           0        1.789852   -0.019977   -0.165053
     17          1           0        2.297217    2.259372   -1.160896
     18         44           0       -0.399280   -0.613831    0.081718
     19          6           0       -3.282831   -0.393396   -1.199178
     20          6           0        2.973245   -0.995459   -1.293617
     21          6           0       -3.384750   -1.485948    1.002001
     22          6           0        2.721820    0.589881    1.382199
     23          6           0        2.117695   -1.741509   -2.320386
     24          6           0        3.724096   -2.041666   -0.467916
     25          6           0        3.963422   -0.097804   -2.038987
     26          6           0        1.863810    1.684719    2.028225
     27          6           0        4.090313    1.193559    1.063013
     28          6           0        2.893492   -0.549134    2.391745
     29          6           0       -0.394291   -0.836172    1.899562
     30          8           0       -0.458481   -1.026519    3.050493
     31          1           0       -2.689986    0.348120   -1.750050
     32          6           0       -4.774746   -0.118192   -1.305488
     33          1           0       -3.032780   -1.347927   -1.677515
     34          1           0       -2.850027   -1.497183    1.962951
     35          6           0       -3.352267   -2.869011    0.387502
     36          1           0       -4.424054   -1.169180    1.221920
     37          8           0       -0.322526   -2.629038   -0.330691
     38          1           0        0.224030   -3.101478    0.307460
     39          8           0       -0.538052   -0.414103   -1.963233
     40          1           0       -0.519269   -1.340939   -2.239786
     41          1           0       -2.321974   -3.101747    0.065118
     42          1           0       -4.035211   -2.960525   -0.470673
     43          1           0       -3.674040   -3.602850    1.141843
     44          1           0       -5.052700   -0.109139   -2.370168
     45          1           0       -5.064128    0.860889   -0.892823
     46          1           0       -5.388389   -0.888756   -0.814524
     47          1           0        2.789556   -2.351081   -2.948659
     48          1           0        1.558536   -1.050208   -2.964195
     49          1           0        1.384713   -2.390953   -1.816846
     50          1           0        4.255600   -2.717327   -1.158073
     51          1           0        3.033018   -2.657197    0.127773
     52          1           0        4.474757   -1.602643    0.203405
     53          1           0        4.598612   -0.734970   -2.677211
     54          1           0        4.627935    0.471198   -1.376960
     55          1           0        3.448079    0.608378   -2.706125
     56          1           0        4.810610    0.442659    0.712196
     57          1           0        4.504934    1.637942    1.983376
     58          1           0        4.031579    1.996358    0.312455
     59          1           0        3.574903   -1.329713    2.033590
     60          1           0        1.937802   -1.019144    2.651610
     61          1           0        3.322551   -0.136330    3.320202
     62          1           0        2.331878    1.980254    2.981435
     63          1           0        0.843861    1.341471    2.245293
     64          1           0        1.799787    2.586224    1.401157
 ---------------------------------------------------------------------

 SCF Done:  E(RPBE1PBE) =  -1554.68832645     A.U. after   17 cycles

 Excitation energies and oscillator strengths:

 Excited State   1:      Singlet-A      3.1843 eV  389.37 nm  f=0.0083  <S**2>=0.000
     113 ->114         0.48972
     113 ->116        -0.43788
     113 ->117         0.17800
 This state for optimization and/or second-order correction.
 Total Energy, E(TD-HF/TD-DFT) =  -1554.57130720
 Copying the excited state density for this state as the 1-particle RhoCI density.

 Excited State   2:      Singlet-A      3.2121 eV  386.00 nm  f=0.0112  <S**2>=0.000
     113 ->114         0.50179
     113 ->116         0.41985
     113 ->117        -0.14141

 Excited State   3:      Singlet-A      3.6899 eV  336.01 nm  f=0.0015  <S**2>=0.000
     112 ->114         0.70131

 Excited State   4:      Singlet-A      3.8424 eV  322.67 nm  f=0.0003  <S**2>=0.000
     113 ->115         0.69998

 Excited State   5:      Singlet-A      4.0559 eV  305.69 nm  f=0.0146  <S**2>=0.000
     112 ->116         0.56161
     112 ->117        -0.28094
     113 ->117        -0.10211

 Excited State   6:      Singlet-A      4.0855 eV  303.48 nm  f=0.0893  <S**2>=0.000
     111 ->114         0.67737
     112 ->115        -0.11833

 Excited State   7:      Singlet-A      4.1465 eV  299.01 nm  f=0.0027  <S**2>=0.000
     111 ->116         0.34737
     111 ->117        -0.15957
     112 ->116         0.12879
     113 ->117         0.40272
     113 ->118        -0.28739
     113 ->123        -0.19551

 Excited State   8:      Singlet-A      4.1657 eV  297.63 nm  f=0.0074  <S**2>=0.000
     111 ->116         0.47300
     111 ->117        -0.17410
     111 ->119         0.11469
     113 ->116        -0.15137
     113 ->117        -0.29376
     113 ->118         0.23084
     113 ->123         0.10768

 Excited State   9:      Singlet-A      4.3340 eV  286.08 nm  f=0.0180  <S**2>=0.000
     111 ->114         0.11317
     112 ->115         0.68244

 Excited State  10:      Singlet-A      4.4444 eV  278.97 nm  f=0.0011  <S**2>=0.000
     112 ->117        -0.16513
     112 ->118         0.10706
     113 ->119         0.46353
     113 ->120         0.29414
     113 ->122        -0.24544
     113 ->123        -0.13169

 Excited State  11:      Singlet-A      4.5494 eV  272.53 nm  f=0.0008  <S**2>=0.000
     109 ->114        -0.14281
     111 ->115         0.63574
     113 ->120        -0.19282

 Excited State  12:      Singlet-A      4.6140 eV  268.71 nm  f=0.0026  <S**2>=0.000
     111 ->115         0.21360
     112 ->120        -0.11276
     113 ->119        -0.25215
     113 ->120         0.51218
     113 ->121        -0.20810

 Excited State  13:      Singlet-A      4.7309 eV  262.07 nm  f=0.0005  <S**2>=0.000
     112 ->116         0.27666
     112 ->117         0.39734
     112 ->118        -0.35217
     112 ->123        -0.21703
     113 ->119         0.15970

 Excited State  14:      Singlet-A      4.7751 eV  259.65 nm  f=0.0013  <S**2>=0.000
     111 ->117         0.40795
     111 ->118        -0.30346
     111 ->119         0.16365
     111 ->123        -0.28412
     112 ->119         0.19515

 Excited State  15:      Singlet-A      4.7934 eV  258.66 nm  f=0.0054  <S**2>=0.000
     113 ->116         0.23906
     113 ->117         0.39136
     113 ->118         0.45919
     113 ->122        -0.15735
     113 ->123         0.12904

 Excited State  16:      Singlet-A      4.9433 eV  250.81 nm  f=0.0021  <S**2>=0.000
     111 ->117        -0.11801
     111 ->119        -0.22592
     111 ->121        -0.11161
     111 ->122         0.10473
     111 ->123         0.11457
     112 ->119         0.45154
     112 ->120         0.16867
     112 ->121         0.12518
     112 ->122        -0.23250
     112 ->123        -0.12702
     113 ->118         0.12188
     113 ->120         0.11660

 Excited State  17:      Singlet-A      5.1394 eV  241.24 nm  f=0.0054  <S**2>=0.000
     110 ->114         0.28261
     111 ->116        -0.11034
     111 ->117        -0.11626
     111 ->118         0.14509
     111 ->119         0.29874
     111 ->122        -0.17352
     112 ->117         0.13202
     112 ->118         0.10421
     112 ->120         0.39755

 Excited State  18:      Singlet-A      5.1614 eV  240.22 nm  f=0.0071  <S**2>=0.000
     110 ->114         0.62453
     111 ->120        -0.12212
     112 ->120        -0.19929

 Excited State  19:      Singlet-A      5.2154 eV  237.73 nm  f=0.0068  <S**2>=0.000
     109 ->114         0.24239
     110 ->114         0.10933
     111 ->119        -0.17862
     111 ->120         0.39458
     111 ->121        -0.16519
     112 ->116         0.12251
     112 ->117         0.20328
     112 ->118         0.20202
     112 ->119        -0.22562

 Excited State  20:      Singlet-A      5.2554 eV  235.92 nm  f=0.0120  <S**2>=0.000
     109 ->114        -0.18690
     111 ->120        -0.26926
     112 ->116         0.12160
     112 ->117         0.27760
     112 ->118         0.42346
     112 ->120        -0.13984
     113 ->118         0.11741
     113 ->122         0.11560
     113 ->123        -0.13138

 Excited State  21:      Singlet-A      5.2619 eV  235.62 nm  f=0.0462  <S**2>=0.000
     109 ->114         0.57044
     111 ->115         0.15305
     111 ->119         0.10529
     111 ->120        -0.26786
     111 ->121         0.10916

 Excited State  22:      Singlet-A      5.3124 eV  233.39 nm  f=0.0037  <S**2>=0.000
     112 ->117        -0.10208
     112 ->118        -0.13405
     113 ->118         0.22053
     113 ->119         0.26162
     113 ->121        -0.27401
     113 ->122         0.46813
     113 ->123        -0.12279

 Excited State  23:      Singlet-A      5.4401 eV  227.91 nm  f=0.0099  <S**2>=0.000
     107 ->114        -0.19439
     108 ->114         0.60315
     113 ->123         0.15834

 Excited State  24:      Singlet-A      5.4989 eV  225.47 nm  f=0.0350  <S**2>=0.000
     108 ->114        -0.20081
     111 ->117        -0.14838
     112 ->118         0.12444
     112 ->119         0.10908
     113 ->118        -0.15153
     113 ->119         0.22791
     113 ->121        -0.11961
     113 ->123         0.48939

 Excited State  25:      Singlet-A      5.5566 eV  223.13 nm  f=0.0037  <S**2>=0.000
     113 ->120         0.18851
     113 ->121         0.55980
     113 ->122         0.36106

 The electronic state is 1-A.
 Alpha  occ. eigenvalues --  -77.25328 -19.25984 -19.15442 -19.14255 -14.44248
 Alpha  occ. eigenvalues --  -14.43064 -10.31505 -10.29513 -10.29041 -10.26596
 Alpha  occ. eigenvalues --  -10.25834 -10.25485 -10.25310 -10.25209 -10.24847
 Alpha  occ. eigenvalues --  -10.24784 -10.24572 -10.24108 -10.21845 -10.21835
 Alpha  occ. eigenvalues --  -10.21770 -10.21678 -10.21637 -10.21524 -10.20765
 Alpha  occ. eigenvalues --  -10.20674  -6.63280  -4.76918  -4.76838  -4.76608
 Alpha  occ. eigenvalues --   -3.04110  -1.88034  -1.86785  -1.86520  -1.12471
 Alpha  occ. eigenvalues --   -1.00894  -0.96562  -0.93094  -0.91997  -0.85113
 Alpha  occ. eigenvalues --   -0.83899  -0.83333  -0.82588  -0.77484  -0.76921
 Alpha  occ. eigenvalues --   -0.74066  -0.70471  -0.70296  -0.70041  -0.69516
 Alpha  occ. eigenvalues --   -0.69054  -0.65990  -0.65839  -0.63126  -0.61962
 Alpha  occ. eigenvalues --   -0.57369  -0.56755  -0.55957  -0.53321  -0.52953
 Alpha  occ. eigenvalues --   -0.51821  -0.50861  -0.50192  -0.48217  -0.47490
 Alpha  occ. eigenvalues --   -0.46923  -0.45993  -0.45639  -0.45348  -0.45080
 Alpha  occ. eigenvalues --   -0.44917  -0.44291  -0.44108  -0.43665  -0.43348
 Alpha  occ. eigenvalues --   -0.43201  -0.42691  -0.42270  -0.41573  -0.41297
 Alpha  occ. eigenvalues --   -0.40823  -0.39915  -0.39378  -0.39067  -0.38680
 Alpha  occ. eigenvalues --   -0.38302  -0.38195  -0.37919  -0.37814  -0.36756
 Alpha  occ. eigenvalues --   -0.36420  -0.36287  -0.35809  -0.35482  -0.34607
 Alpha  occ. eigenvalues --   -0.34546  -0.34090  -0.33555  -0.33419  -0.32870
 Alpha  occ. eigenvalues --   -0.32626  -0.31781  -0.31393  -0.30155  -0.29487
 Alpha  occ. eigenvalues --   -0.28696  -0.27891  -0.27275  -0.26534  -0.26380
 Alpha  occ. eigenvalues --   -0.22197  -0.21130  -0.19283
 Alpha virt. eigenvalues --   -0.03782  -0.01758   0.00173   0.00936   0.01973
 Alpha virt. eigenvalues --    0.02578   0.03466   0.03881   0.03907   0.05660
 Alpha virt. eigenvalues --    0.06933   0.08976   0.09370   0.09631   0.09721

 Mulliken charges:
               1
     1  N   -0.317044
     2  C    0.037346
     3  C    0.064809
     4  C   -0.048607
     5  C    0.080998
     6  C   -0.044296
     7  C    0.121550
     8  H    0.035267
     9  H    0.047375
    10  H    0.035444
    11  C   -0.077001
    12  N   -0.381246
    13  H    0.070583
    14  H    0.114895
    15  H    0.136949
    16  P    0.249336
    17  H    0.092248
    18  Ru  -0.045043
    19  C   -0.026594
    20  C   -0.467656
    21  C   -0.001800
    22  C   -0.454896
    23  C   -0.012125
    24  C   -0.019759
    25  C   -0.001556
    26  C   -0.023857
    27  C   -0.001383
    28  C   -0.019089
    29  C   -0.005710
    30  O   -0.188232
    31  H    0.111625
    32  C   -0.076160
    33  H    0.100659
    34  H    0.076937
    35  C   -0.121903
    36  H    0.048618
    37  O   -0.472942
    38  H    0.182898
    39  O   -0.479286
    40  H    0.195800
    41  H    0.096981
    42  H    0.056860
    43  H    0.056119
    44  H    0.059650
    45  H    0.062152
    46  H    0.059890
    47  H    0.038222
    48  H    0.061445
    49  H    0.086585
    50  H    0.050930
    51  H    0.077064
    52  H    0.065939
    53  H    0.046515
    54  H    0.045081
    55  H    0.057400
    56  H    0.064628
    57  H    0.048619
    58  H    0.059541
    59  H    0.047486
    60  H    0.076945
    61  H    0.049347
    62  H    0.050654
    63  H    0.099140
    64  H    0.065652
 Sum of Mulliken charges =  -0.00000

 Dipole moment (field-independent basis, Debye):
    X=              1.2929    Y=              9.7383    Z=              1.7843  Tot=              9.9844
 Quadrupole moment (field-independent basis, Debye-Ang):
   XX=           -150.6045   YY=           -176.0611   ZZ=           -201.2159
   XY=             -7.6622   XZ=             -4.9624   YZ=             -3.5492

 Normal termination of Gaussian 16 at Thu Aug 20 15:21:23 2020.
