 Gaussian 16, Revision A.03,
 Gaussian 16:  ES64L-G16RevA.03 25-Dec-2016

 ----------------------------------------------------------------------
 # genecp pbe1pbe EmpiricalDispersion=GD3BJ scrf=(SMD,solvent=water) ge
 om=allcheck
 ----------------------------------------------------------------------

 Structure from the checkpoint file:  "/scratch/js1212.534967/3-Full-GPOF-Disp.chk"
 -------------------
 Title Card Required
 -------------------
 Charge =  0 Multiplicity = 1

                         Standard orientation:
 ---------------------------------------------------------------------
 Center     Atomic      Atomic             Coordinates (Angstroms)
 Number     Number       Type             X           Y           Z
 ---------------------------------------------------------------------
      1          7           0       -0.714614    1.411452   -0.055521
      2          6           0       -1.937253    1.873549    0.261832
      3          6           0        0.194590    2.207231   -0.652389
      4          6           0       -2.281284    3.202664    0.053608
      5          6           0       -1.331138    4.060303   -0.497172
      6          6           0       -0.087730    3.557090   -0.861706
      7          6           0       -2.850433    0.844287    0.855282
      8          1           0       -3.279592    3.554365    0.315619
      9          1           0       -1.568833    5.112484   -0.663414
     10          1           0        0.661920    4.197075   -1.328171
     11          6           0        1.457211    1.551827   -1.117836
     12          7           0       -2.724110   -0.455342    0.169506
     13          1           0       -3.891597    1.210429    0.861212
     14          1           0       -2.556080    0.686534    1.905735
     15          1           0        1.243037    1.167366   -2.130265
     16         15           0        1.789852   -0.019977   -0.165053
     17          1           0        2.297217    2.259372   -1.160896
     18         44           0       -0.399280   -0.613831    0.081718
     19          6           0       -3.282831   -0.393396   -1.199178
     20          6           0        2.973245   -0.995459   -1.293617
     21          6           0       -3.384750   -1.485948    1.002001
     22          6           0        2.721820    0.589881    1.382199
     23          6           0        2.117695   -1.741509   -2.320386
     24          6           0        3.724096   -2.041666   -0.467916
     25          6           0        3.963422   -0.097804   -2.038987
     26          6           0        1.863810    1.684719    2.028225
     27          6           0        4.090313    1.193559    1.063013
     28          6           0        2.893492   -0.549134    2.391745
     29          6           0       -0.394291   -0.836172    1.899562
     30          8           0       -0.458481   -1.026519    3.050493
     31          1           0       -2.689986    0.348120   -1.750050
     32          6           0       -4.774746   -0.118192   -1.305488
     33          1           0       -3.032780   -1.347927   -1.677515
     34          1           0       -2.850027   -1.497183    1.962951
     35          6           0       -3.352267   -2.869011    0.387502
     36          1           0       -4.424054   -1.169180    1.221920
     37          8           0       -0.322526   -2.629038   -0.330691
     38          1           0        0.224030   -3.101478    0.307460
     39          8           0       -0.538052   -0.414103   -1.963233
     40          1           0       -0.519269   -1.340939   -2.239786
     41          1           0       -2.321974   -3.101747    0.065118
     42          1           0       -4.035211   -2.960525   -0.470673
     43          1           0       -3.674040   -3.602850    1.141843
     44          1           0       -5.052700   -0.109139   -2.370168
     45          1           0       -5.064128    0.860889   -0.892823
     46          1           0       -5.388389   -0.888756   -0.814524
     47          1           0        2.789556   -2.351081   -2.948659
     48          1           0        1.558536   -1.050208   -2.964195
     49          1           0        1.384713   -2.390953   -1.816846
     50          1           0        4.255600   -2.717327   -1.158073
     51          1           0        3.033018   -2.657197    0.127773
     52          1           0        4.474757   -1.602643    0.203405
     53          1           0        4.598612   -0.734970   -2.677211
     54          1           0        4.627935    0.471198   -1.376960
     55          1           0        3.448079    0.608378   -2.706125
     56          1           0        4.810610    0.442659    0.712196
     57          1           0        4.504934    1.637942    1.983376
     58          1           0        4.031579    1.996358    0.312455
     59          1           0        3.574903   -1.329713    2.033590
     60          1           0        1.937802   -1.019144    2.651610
     61          1           0        3.322551   -0.136330    3.320202
     62          1           0        2.331878    1.980254    2.981435
     63          1           0        0.843861    1.341471    2.245293
     64          1           0        1.799787    2.586224    1.401157
 ---------------------------------------------------------------------

 SCF Done:  E(RPBE1PBE) =  -1555.00717846     A.U. after   17 cycles

 The electronic state is 1-A.
 Alpha  occ. eigenvalues --  -77.25385 -19.24665 -19.13988 -19.12937 -14.43212
 Alpha  occ. eigenvalues --  -14.42178 -10.30808 -10.28798 -10.28322 -10.25802
 Alpha  occ. eigenvalues --  -10.25041 -10.25006 -10.24837 -10.24423 -10.24049
 Alpha  occ. eigenvalues --  -10.23987 -10.23799 -10.23312 -10.20862 -10.20851
 Alpha  occ. eigenvalues --  -10.20804 -10.20695 -10.20625 -10.20538 -10.19793
 Alpha  occ. eigenvalues --  -10.19733  -6.62801  -4.76469  -4.76390  -4.76162
 Alpha  occ. eigenvalues --   -3.04314  -1.88216  -1.86962  -1.86715  -1.12200
 Alpha  occ. eigenvalues --   -1.00692  -0.96444  -0.93253  -0.92202  -0.85058
 Alpha  occ. eigenvalues --   -0.83761  -0.83237  -0.82590  -0.77503  -0.76890
 Alpha  occ. eigenvalues --   -0.74003  -0.70508  -0.70289  -0.70067  -0.69555
 Alpha  occ. eigenvalues --   -0.69108  -0.65950  -0.65825  -0.63101  -0.61926
 Alpha  occ. eigenvalues --   -0.57450  -0.56803  -0.56026  -0.53389  -0.53022
 Alpha  occ. eigenvalues --   -0.51919  -0.50995  -0.50324  -0.48329  -0.47572
 Alpha  occ. eigenvalues --   -0.47079  -0.46119  -0.45806  -0.45530  -0.45237
 Alpha  occ. eigenvalues --   -0.45065  -0.44445  -0.44217  -0.43887  -0.43509
 Alpha  occ. eigenvalues --   -0.43392  -0.42918  -0.42434  -0.41716  -0.41445
 Alpha  occ. eigenvalues --   -0.41017  -0.40118  -0.39604  -0.39250  -0.38839
 Alpha  occ. eigenvalues --   -0.38460  -0.38402  -0.38106  -0.38005  -0.36903
 Alpha  occ. eigenvalues --   -0.36581  -0.36465  -0.35983  -0.35608  -0.34758
 Alpha  occ. eigenvalues --   -0.34702  -0.34273  -0.33722  -0.33592  -0.33024
 Alpha  occ. eigenvalues --   -0.32751  -0.31921  -0.31530  -0.30365  -0.29789
 Alpha  occ. eigenvalues --   -0.29013  -0.28229  -0.27600  -0.26748  -0.26500
 Alpha  occ. eigenvalues --   -0.22387  -0.21541  -0.19563
 Alpha virt. eigenvalues --   -0.04089  -0.02076  -0.00069   0.00695   0.01681
 Alpha virt. eigenvalues --    0.02256   0.03083   0.03193   0.03470   0.05039
 Alpha virt. eigenvalues --    0.06247   0.07416   0.07681   0.07858   0.07933

 Mulliken charges:
               1
     1  N   -0.162089
     2  C    0.086145
     3  C    0.076242
     4  C   -0.152925
     5  C   -0.132372
     6  C   -0.137587
     7  C   -0.094625
     8  H    0.162264
     9  H    0.163233
    10  H    0.163101
    11  C   -0.234567
    12  N   -0.217410
    13  H    0.126540
    14  H    0.167956
    15  H    0.175494
    16  P    0.173832
    17  H    0.148998
    18  Ru   0.598197
    19  C   -0.096914
    20  C   -0.005559
    21  C   -0.110062
    22  C   -0.009125
    23  C   -0.362829
    24  C   -0.341440
    25  C   -0.331559
    26  C   -0.351654
    27  C   -0.334673
    28  C   -0.350074
    29  C   -0.126805
    30  O   -0.297100
    31  H    0.141630
    32  C   -0.327855
    33  H    0.133121
    34  H    0.137133
    35  C   -0.357532
    36  H    0.111815
    37  O   -0.698178
    38  H    0.259517
    39  O   -0.703434
    40  H    0.288886
    41  H    0.134781
    42  H    0.106565
    43  H    0.110942
    44  H    0.115164
    45  H    0.109116
    46  H    0.110346
    47  H    0.105254
    48  H    0.115943
    49  H    0.129851
    50  H    0.107588
    51  H    0.120548
    52  H    0.122289
    53  H    0.108278
    54  H    0.123487
    55  H    0.114410
    56  H    0.119646
    57  H    0.108936
    58  H    0.118806
    59  H    0.120712
    60  H    0.133534
    61  H    0.107821
    62  H    0.113415
    63  H    0.146524
    64  H    0.118307
 Sum of Mulliken charges =  -0.00000

 Dipole moment (field-independent basis, Debye):
    X=              1.1993    Y=              9.8780    Z=              1.7069  Tot=             10.0959
 Quadrupole moment (field-independent basis, Debye-Ang):
   XX=           -151.9225   YY=           -177.4986   ZZ=           -203.4336
   XY=             -7.6400   XZ=             -5.0155   YZ=             -3.6202

 Normal termination of Gaussian 16 at Fri Oct 11 14:57:49 2019.
