 Gaussian 16, Revision A.03,
 Gaussian 16:  ES64L-G16RevA.03 25-Dec-2016

 ----------------------------------------------------------------------
 # opt=ModRedundant genecp pbe1pbe EmpiricalDispersion=GD3BJ NoSymm Geo
 m=AllCheck
 ----------------------------------------------------------------------

 Structure from the checkpoint file:  "/scratch/js1212.747568/GMe-Mono-D-0-OO-Scan-Shorten.chk"
 -------------------
 Title Card Required
 -------------------
 Charge =  0 Multiplicity = 2

 SCF Done:  E(UPBE1PBE) =  -1239.85448168     A.U. after   30 cycles
 SCF Done:  E(UPBE1PBE) =  -1239.85447181     A.U. after   18 cycles
 SCF Done:  E(UPBE1PBE) =  -1239.85447893     A.U. after   20 cycles
 SCF Done:  E(UPBE1PBE) =  -1239.85448130     A.U. after   18 cycles
 SCF Done:  E(UPBE1PBE) =  -1239.85448172     A.U. after   17 cycles
 SCF Done:  E(UPBE1PBE) =  -1239.85448148     A.U. after   18 cycles
 SCF Done:  E(UPBE1PBE) =  -1239.85448114     A.U. after   17 cycles
 SCF Done:  E(UPBE1PBE) =  -1239.85448205     A.U. after   17 cycles
 SCF Done:  E(UPBE1PBE) =  -1239.85448161     A.U. after   16 cycles
 SCF Done:  E(UPBE1PBE) =  -1239.85448167     A.U. after   17 cycles
 Optimization completed.
    -- Stationary point found.
 Optimization completed.
    -- Stationary point found.
 SCF Done:  E(UPBE1PBE) =  -1239.77591435     A.U. after   16 cycles
 SCF Done:  E(UPBE1PBE) =  -1239.77603965     A.U. after   16 cycles
 SCF Done:  E(UPBE1PBE) =  -1239.77607084     A.U. after   15 cycles
 SCF Done:  E(UPBE1PBE) =  -1239.77610838     A.U. after   15 cycles
 SCF Done:  E(UPBE1PBE) =  -1239.77611269     A.U. after   14 cycles
 SCF Done:  E(UPBE1PBE) =  -1239.77611456     A.U. after   13 cycles
 SCF Done:  E(UPBE1PBE) =  -1239.77611523     A.U. after   11 cycles
 SCF Done:  E(UPBE1PBE) =  -1239.77611542     A.U. after   10 cycles
 SCF Done:  E(UPBE1PBE) =  -1239.77611555     A.U. after   10 cycles
 SCF Done:  E(UPBE1PBE) =  -1239.77611560     A.U. after    8 cycles
 Optimization completed.
    -- Stationary point found.

                          Input orientation:
 ---------------------------------------------------------------------
 Center     Atomic      Atomic             Coordinates (Angstroms)
 Number     Number       Type             X           Y           Z
 ---------------------------------------------------------------------
      1          8           0       -0.421503   -2.142730    1.382354
      2          8           0       -0.468948   -1.324454    2.576977
      3          6           0       -3.272482   -1.181024    1.395541
      4          1           0       -2.418028    1.152291    1.830848
      5          7           0       -2.694596   -0.302362    0.376335
      6          6           0       -2.791481    1.111615    0.791051
      7          6           0        2.617771    0.728674    1.269770
      8          6           0        2.925901   -1.051330   -0.966295
      9         15           0        1.689877    0.024768   -0.154189
     10          1           0       -3.843005    1.455321    0.788227
     11          6           0       -3.388775   -0.493102   -0.900498
     12          6           0       -0.427179   -1.450997   -1.463565
     13          6           0       -1.924979    1.997156   -0.048878
     14          7           0       -0.715381    1.427626   -0.362294
     15          6           0        1.496039    1.460623   -1.330083
     16          6           0        0.232269    2.194699   -0.999000
     17          6           0       -2.219408    3.305074   -0.375005
     18          1           0       -3.195066    3.715305   -0.107524
     19          1           0        1.388630    0.976869   -2.319381
     20          1           0        2.371741    2.125749   -1.372683
     21          6           0       -0.011366    3.517365   -1.311537
     22          6           0       -1.254389    4.098138   -1.011356
     23          1           0        0.768185    4.098218   -1.807757
     24          1           0       -1.461051    5.137830   -1.263897
     25          8           0       -0.306416   -1.920124   -2.526481
     26          1           0        0.453446   -1.357240    2.875101
     27          1           0        3.584706    1.152628    0.955734
     28          1           0        2.793630   -0.062044    2.013972
     29          1           0        2.001924    1.514074    1.731131
     30          1           0        2.492131   -1.447466   -1.895238
     31          1           0        3.137235   -1.899336   -0.298831
     32          1           0        3.859217   -0.511622   -1.186269
     33          1           0       -3.115756   -2.223456    1.093955
     34          1           0       -4.353180   -0.977195    1.517197
     35          1           0       -2.746175   -1.030481    2.345054
     36          1           0       -2.956562    0.174685   -1.657480
     37          1           0       -4.468633   -0.273741   -0.793983
     38          1           0       -3.260444   -1.531869   -1.228693
     39         44           0       -0.474519   -0.534937    0.106931
 ---------------------------------------------------------------------

 Alpha  occ. eigenvalues --  -77.26589 -19.24130 -19.23386 -19.18684 -14.44408
 Alpha  occ. eigenvalues --  -14.42894 -10.30637 -10.28028 -10.27820 -10.27580
 Alpha  occ. eigenvalues --  -10.26047 -10.25488 -10.24959 -10.24945 -10.24563
 Alpha  occ. eigenvalues --  -10.24332 -10.24166 -10.24072  -6.64583  -4.78218
 Alpha  occ. eigenvalues --   -4.78189  -4.77872  -3.03357  -1.87752  -1.86390
 Alpha  occ. eigenvalues --   -1.85592  -1.10528  -1.07814  -0.99508  -0.97015
 Alpha  occ. eigenvalues --   -0.83845  -0.82662  -0.81773  -0.79575  -0.75259
 Alpha  occ. eigenvalues --   -0.73614  -0.72803  -0.71888  -0.65641  -0.63413
 Alpha  occ. eigenvalues --   -0.61494  -0.57522  -0.54895  -0.53348  -0.51823
 Alpha  occ. eigenvalues --   -0.50761  -0.49772  -0.48970  -0.48046  -0.47123
 Alpha  occ. eigenvalues --   -0.46532  -0.45817  -0.44582  -0.43939  -0.43802
 Alpha  occ. eigenvalues --   -0.43474  -0.42953  -0.42447  -0.42059  -0.41937
 Alpha  occ. eigenvalues --   -0.41253  -0.40511  -0.39905  -0.39429  -0.38885
 Alpha  occ. eigenvalues --   -0.38047  -0.37289  -0.37181  -0.36190  -0.36013
 Alpha  occ. eigenvalues --   -0.34744  -0.33648  -0.31475  -0.28484  -0.27129
 Alpha  occ. eigenvalues --   -0.26437  -0.24413  -0.23310  -0.21318  -0.18314
 Alpha  occ. eigenvalues --   -0.11539
 Alpha virt. eigenvalues --   -0.03236  -0.01247  -0.00060   0.01865   0.02007
 Alpha virt. eigenvalues --    0.02806   0.03709   0.04472   0.05623   0.07428
 Alpha virt. eigenvalues --    0.07914   0.08683   0.08725   0.09106   0.09606

  Beta  occ. eigenvalues --  -77.26589 -19.24089 -19.23216 -19.18591 -14.44392
  Beta  occ. eigenvalues --  -14.42820 -10.30562 -10.27841 -10.27774 -10.27298
  Beta  occ. eigenvalues --  -10.26042 -10.25510 -10.24945 -10.24920 -10.24563
  Beta  occ. eigenvalues --  -10.24478 -10.24284 -10.23658  -6.64581  -4.78217
  Beta  occ. eigenvalues --   -4.78183  -4.77880  -3.02442  -1.86187  -1.85439
  Beta  occ. eigenvalues --   -1.85054  -1.10363  -1.07497  -0.99313  -0.96840
  Beta  occ. eigenvalues --   -0.83540  -0.82289  -0.81480  -0.79460  -0.75143
  Beta  occ. eigenvalues --   -0.73595  -0.72757  -0.71928  -0.65171  -0.63223
  Beta  occ. eigenvalues --   -0.61320  -0.57416  -0.54589  -0.53237  -0.51692
  Beta  occ. eigenvalues --   -0.50610  -0.49626  -0.48834  -0.47878  -0.46933
  Beta  occ. eigenvalues --   -0.46401  -0.45695  -0.44443  -0.43669  -0.43431
  Beta  occ. eigenvalues --   -0.43164  -0.42723  -0.42291  -0.41994  -0.41654
  Beta  occ. eigenvalues --   -0.41168  -0.40301  -0.39751  -0.39310  -0.38669
  Beta  occ. eigenvalues --   -0.37622  -0.37219  -0.37026  -0.36051  -0.35835
  Beta  occ. eigenvalues --   -0.34412  -0.33434  -0.30299  -0.28219  -0.26480
  Beta  occ. eigenvalues --   -0.25980  -0.24016  -0.22544  -0.20700  -0.17970
  Beta virt. eigenvalues --   -0.04216  -0.00902  -0.00685   0.00276   0.02105
  Beta virt. eigenvalues --    0.02401   0.03001   0.04329   0.04829   0.06039
  Beta virt. eigenvalues --    0.07573   0.08150   0.08842   0.08888   0.09353

 Mulliken charges and spin densities:
               1          2
     1  O   -0.339001   0.026172
     2  O   -0.146986   0.034529
     3  C    0.029564  -0.000922
     4  H    0.096206   0.008240
     5  N   -0.397743   0.002110
     6  C    0.105049  -0.007681
     7  C   -0.190253   0.010060
     8  C   -0.183096  -0.001253
     9  P    0.004375   0.019275
    10  H    0.037395   0.002330
    11  C    0.016026   0.001500
    12  C   -0.002472   0.059901
    13  C    0.051926   0.165683
    14  N   -0.432526   0.038926
    15  C   -0.091630  -0.014647
    16  C    0.086074   0.154692
    17  C   -0.040086  -0.102267
    18  H   -0.004327   0.003738
    19  H    0.102387   0.008816
    20  H    0.053596   0.000810
    21  C   -0.051596  -0.087762
    22  C    0.037113   0.281647
    23  H   -0.006315   0.002927
    24  H    0.002942  -0.014251
    25  O   -0.143172   0.002133
    26  H    0.187142   0.006248
    27  H    0.066563   0.005500
    28  H    0.081969  -0.000520
    29  H    0.105115  -0.002289
    30  H    0.100701   0.000954
    31  H    0.095696  -0.000054
    32  H    0.064794  -0.000358
    33  H    0.098008   0.000431
    34  H    0.031776   0.000466
    35  H    0.105047   0.000009
    36  H    0.103772  -0.000403
    37  H    0.038812  -0.000100
    38  H    0.091296   0.000074
    39  Ru   0.235858   0.395331
 Sum of Mulliken charges =  -0.00000   1.00000

 Dipole moment (field-independent basis, Debye):
    X=              1.3166    Y=              4.5013    Z=              0.3365  Tot=              4.7020
 Quadrupole moment (field-independent basis, Debye-Ang):
   XX=           -111.5607   YY=           -141.3758   ZZ=           -139.9855
   XY=             -2.3310   XZ=             -0.5057   YZ=             -0.9622

 Normal termination of Gaussian 16 at Sun Jun  7 21:36:14 2020.
