 Gaussian 16, Revision A.03,
 Gaussian 16:  ES64L-G16RevA.03 25-Dec-2016

 ----------------------------------------------------------------------
 # genecp pbe1pbe EmpiricalDispersion=GD3BJ scrf=(SMD,solvent=water) td
 =nstates=25 geom=allcheck
 ----------------------------------------------------------------------

 Structure from the checkpoint file:  "/scratch/js1212.769348/F-R2-R2-Down-GP-Disp-TD-SMD-NStates25.chk"
 -------------------
 Title Card Required
 -------------------
 Charge =  0 Multiplicity = 1

                         Standard orientation:
 ---------------------------------------------------------------------
 Center     Atomic      Atomic             Coordinates (Angstroms)
 Number     Number       Type             X           Y           Z
 ---------------------------------------------------------------------
      1          1           0        0.456688   -1.415543   -3.910186
      2          6           0       -0.608489   -1.191208   -3.761314
      3          1           0       -1.115359   -1.298841   -4.732756
      4          1           0       -0.689138   -0.147995   -3.421237
      5          1           0       -0.742968    0.908820    2.578566
      6          8           0       -0.733134    0.990691   -1.308105
      7          1           0       -0.864073    3.103158    1.532302
      8          8           0       -1.306545   -1.170523    0.327094
      9          1           0       -0.117981    0.239495   -1.318471
     10          6           0       -1.156049   -2.121354   -2.700528
     11          1           0       -1.341891    0.632340    4.243888
     12          1           0       -1.193937   -3.163626   -3.074474
     13          6           0       -1.549557    1.154463    3.293467
     14          1           0       -1.171424    2.920578   -0.199283
     15          1           0       -1.502050    2.232864    3.505264
     16          1           0       -0.494568   -2.112239   -1.824451
     17          6           0       -1.486834    3.465823    0.703587
     18          1           0       -1.286868    4.542678    0.570686
     19          1           0       -2.173477   -2.854878   -0.514451
     20         44           0       -2.517756    0.090583   -0.768734
     21          1           0       -2.326150   -1.226770    2.007940
     22          7           0       -2.494095   -1.726325   -2.214072
     23          6           0       -2.974188   -2.748207   -1.263999
     24          6           0       -2.934929    0.725465    2.803653
     25          1           0       -2.703223   -1.174972    3.772429
     26          1           0       -2.826441    3.735652    3.114007
     27          6           0       -2.998635   -0.808286    2.774266
     28          6           0       -2.981564    3.263451    0.971619
     29         15           0       -3.213706    1.378245    1.022070
     30          1           0       -3.152897   -3.720179   -1.754684
     31          6           0       -3.411913    4.015548    2.229515
     32          1           0       -3.116889   -0.676328   -3.904432
     33          1           0       -2.772344   -3.048496   -4.744441
     34          1           0       -3.249140    5.093187    2.059283
     35          6           0       -3.462210   -1.536119   -3.317261
     36          1           0       -3.767093    0.773297    4.776240
     37          6           0       -3.394992    1.146020   -1.984718
     38          6           0       -4.009163    1.200498    3.788484
     39          1           0       -3.484499    3.398297   -1.163729
     40          6           0       -3.769977    3.841994   -0.204276
     41          1           0       -4.058736    2.288109    3.907822
     42          1           0       -3.547886    4.920292   -0.265006
     43          6           0       -4.203923   -2.277376   -0.548017
     44          7           0       -4.188136   -0.971257   -0.219529
     45          6           0       -3.691834   -2.730519   -4.231517
     46          1           0       -4.021291   -1.171234    2.589086
     47          1           0       -4.415009   -1.230430   -2.860535
     48          1           0       -4.480867    3.878288    2.454358
     49          1           0       -4.104848   -3.600705   -3.699458
     50          6           0       -5.047854    1.043740    0.777575
     51          1           0       -4.420835   -2.448444   -5.005966
     52          1           0       -5.010973    0.830454    3.523440
     53          6           0       -5.211889   -0.410678    0.461240
     54          6           0       -5.278999   -3.087261   -0.201492
     55          1           0       -4.859060    3.744044   -0.074320
     56          1           0       -5.275918   -4.140917   -0.482922
     57          1           0       -5.329991    1.632039   -0.110683
     58          1           0       -5.694708    1.354080    1.609012
     59          6           0       -6.310915   -1.178964    0.837343
     60          6           0       -6.343793   -2.530211    0.503610
     61          1           0       -7.128154   -0.715768    1.391032
     62          1           0       -7.197947   -3.146359    0.789762
     63          8           0       -3.886775    1.769078   -2.837208
     64          6           0        0.534085   -3.717389    2.889716
     65          1           0        1.031909    1.208481   -2.611090
     66          8           0        0.650501    0.639164    1.170655
     67          1           0        1.125486    3.119745   -1.165329
     68          8           0        1.442615   -1.311025   -0.694848
     69          1           0        0.260650    1.024852    0.361092
     70          6           0        0.800545   -2.404188    2.170769
     71          1           0        1.682015    1.044328   -4.260912
     72          6           0        1.882014    1.462541   -3.260272
     73          1           0        1.451881    2.853300    0.548864
     74          1           0        1.900161    2.556318   -3.366622
     75          6           0        1.773921    3.426979   -0.332784
     76          1           0        1.609772    4.501606   -0.145304
     77          1           0        2.213203   -3.132607    0.233843
     78         44           0        2.487713   -0.147150    0.674085
     79          1           0        2.425275   -1.082334   -2.296850
     80          7           0        2.220144   -2.035480    1.981312
     81          6           0        2.884663   -3.016965    1.101618
     82          6           0        3.215235    0.907393   -2.754604
     83          1           0        3.065618   -0.852529   -3.972184
     84          1           0        3.146646    3.900863   -2.706111
     85          6           0        3.218908   -0.618717   -2.904292
     86          6           0        3.258425    3.185934   -0.623184
     87         15           0        3.393130    1.302216   -0.895282
     88          1           0        3.037756   -3.985364    1.608317
     89          6           0        3.723691    4.059805   -1.787697
     90          1           0        3.937894   -1.538049    3.054339
     91          1           0        1.860085   -0.159240    3.865307
     92          1           0        3.587013    5.114976   -1.496875
     93          6           0        2.939911   -1.948112    3.269605
     94          1           0        4.163817    1.160525   -4.657185
     95          6           0        3.317706    0.773897    2.016011
     96          6           0        4.364974    1.448233   -3.611432
     97          1           0        3.801612    3.071989    1.510826
     98          6           0        4.075510    3.610231    0.598523
     99          1           0        4.471943    2.537686   -3.588671
    100          1           0        3.879321    4.679927    0.781100
    101          6           0        4.184852   -2.510316    0.553986
    102          7           0        4.197297   -1.203073    0.237096
    103          6           0        2.231386   -1.094886    4.305166
    104          1           0        4.190480   -1.052751   -2.619580
    105          1           0        3.098823   -2.968323    3.670329
    106          1           0        4.792164    3.920685   -2.011521
    107          1           0        1.376860   -1.620622    4.754669
    108          6           0        5.185334    0.845320   -0.566710
    109          1           0        2.932764   -0.839136    5.112218
    110          1           0        5.330857    0.994791   -3.342590
    111          6           0        5.285521   -0.628892   -0.318671
    112          6           0        5.293193   -3.313760    0.308016
    113          1           0        5.159552    3.506933    0.434503
    114          1           0        5.266820   -4.370105    0.577503
    115          1           0        5.445038    1.365686    0.369851
    116          1           0        5.894684    1.175707   -1.337280
    117          6           0        6.414785   -1.392369   -0.604611
    118          6           0        6.416947   -2.747866   -0.288285
    119          1           0        7.283492   -0.919818   -1.063898
    120          1           0        7.295941   -3.359641   -0.498919
    121          1           0        0.519380   -1.286666   -0.381876
    122          8           0        3.843366    1.294687    2.918437
    123          1           0       -0.555540   -3.859169    2.951469
    124          1           0        0.926133   -3.740512    3.918384
    125          1           0        0.942917   -4.585910    2.350263
    126          1           0        0.339089   -2.420013    1.177889
    127          1           0        0.324311   -1.568253    2.696325
    128          1           0       -0.673430   -0.575065    0.790321
 ---------------------------------------------------------------------

 SCF Done:  E(RPBE1PBE) =  -3109.40076119     A.U. after   17 cycles

 Excitation energies and oscillator strengths:

 Excited State   1:      Singlet-A      3.0623 eV  404.88 nm  f=0.0330  <S**2>=0.000
     226 -> 227       -0.38435
     226 -> 229       -0.10100
     226 -> 231        0.41474
     226 -> 232        0.28506
 This state for optimization and/or second-order correction.
 Total Energy, E(TD-HF/TD-DFT) =  -3109.28822492
 Copying the excited state density for this state as the 1-particle RhoCI density.

 Excited State   2:      Singlet-A      3.1737 eV  390.66 nm  f=0.0141  <S**2>=0.000
     224 -> 228       -0.19470
     224 -> 231       -0.14943
     224 -> 232        0.18492
     225 -> 228        0.41777
     225 -> 231        0.25914
     225 -> 232       -0.33096

 Excited State   3:      Singlet-A      3.2385 eV  382.85 nm  f=0.0139  <S**2>=0.000
     224 -> 227        0.15080
     225 -> 227        0.12532
     226 -> 227        0.52426
     226 -> 231        0.29613
     226 -> 232        0.19769

 Excited State   4:      Singlet-A      3.3394 eV  371.28 nm  f=0.0065  <S**2>=0.000
     224 -> 228       -0.15014
     224 -> 231        0.12203
     224 -> 232       -0.15207
     225 -> 228        0.50068
     225 -> 231       -0.22685
     225 -> 232        0.27843

 Excited State   5:      Singlet-A      3.5165 eV  352.58 nm  f=0.0596  <S**2>=0.000
     223 -> 227        0.25389
     223 -> 228        0.15463
     224 -> 227        0.36600
     224 -> 228       -0.16481
     225 -> 227        0.39416
     226 -> 227       -0.23139

 Excited State   6:      Singlet-A      3.5260 eV  351.63 nm  f=0.0286  <S**2>=0.000
     223 -> 227        0.14090
     223 -> 228       -0.30628
     224 -> 228        0.48548
     225 -> 227        0.15244
     225 -> 228        0.16446
     226 -> 228       -0.17655

 Excited State   7:      Singlet-A      3.6770 eV  337.19 nm  f=0.0039  <S**2>=0.000
     223 -> 228       -0.11018
     224 -> 228        0.13218
     226 -> 228        0.67289

 Excited State   8:      Singlet-A      3.7858 eV  327.50 nm  f=0.0013  <S**2>=0.000
     223 -> 231        0.17595
     223 -> 232        0.17339
     224 -> 227       -0.11399
     224 -> 231        0.25864
     224 -> 232        0.10901
     225 -> 227        0.33762
     225 -> 231        0.18407
     226 -> 229        0.26534
     226 -> 230        0.22462

 Excited State   9:      Singlet-A      3.8189 eV  324.66 nm  f=0.0076  <S**2>=0.000
     223 -> 227        0.12516
     224 -> 227        0.19579
     225 -> 227       -0.26273
     226 -> 229        0.41899
     226 -> 230        0.37103
     226 -> 231        0.12877

 Excited State  10:      Singlet-A      3.8209 eV  324.49 nm  f=0.0056  <S**2>=0.000
     222 -> 228        0.13942
     222 -> 232       -0.12533
     223 -> 228       -0.13473
     223 -> 231        0.17406
     223 -> 232       -0.25984
     224 -> 227       -0.14780
     224 -> 228        0.10971
     224 -> 231       -0.26445
     224 -> 232        0.29103
     225 -> 227        0.15973
     225 -> 231       -0.15659
     225 -> 232        0.15518

 Excited State  11:      Singlet-A      3.8419 eV  322.72 nm  f=0.0073  <S**2>=0.000
     223 -> 227        0.15331
     223 -> 231        0.25379
     224 -> 227        0.30744
     224 -> 231        0.12427
     224 -> 232        0.23197
     225 -> 227       -0.26826
     225 -> 231        0.12087
     225 -> 232        0.17494
     226 -> 229       -0.12305
     226 -> 232       -0.10485

 Excited State  12:      Singlet-A      3.9481 eV  314.04 nm  f=0.0013  <S**2>=0.000
     222 -> 228        0.13302
     223 -> 228       -0.10345
     224 -> 229        0.15025
     224 -> 230       -0.16736
     225 -> 229       -0.42168
     225 -> 230        0.46232

 Excited State  13:      Singlet-A      3.9737 eV  312.01 nm  f=0.0319  <S**2>=0.000
     222 -> 228       -0.36505
     223 -> 228        0.39298
     224 -> 228        0.31372
     225 -> 228        0.13739
     225 -> 229       -0.12987
     225 -> 230        0.14412

 Excited State  14:      Singlet-A      4.0167 eV  308.67 nm  f=0.0024  <S**2>=0.000
     221 -> 227        0.36698
     221 -> 231       -0.11512
     223 -> 227        0.44734
     224 -> 227       -0.31686

 Excited State  15:      Singlet-A      4.1102 eV  301.65 nm  f=0.0004  <S**2>=0.000
     221 -> 227        0.19791
     221 -> 231       -0.14805
     221 -> 232       -0.11424
     223 -> 227       -0.23707
     223 -> 229        0.15448
     223 -> 230        0.17425
     224 -> 227        0.16244
     224 -> 229        0.26528
     224 -> 230        0.15969
     225 -> 229        0.24724
     225 -> 230        0.20407

 Excited State  16:      Singlet-A      4.1292 eV  300.26 nm  f=0.0002  <S**2>=0.000
     223 -> 228       -0.14601
     223 -> 229        0.20693
     223 -> 230       -0.18502
     224 -> 229       -0.29440
     224 -> 230        0.38293
     225 -> 230        0.13899
     226 -> 229        0.17553
     226 -> 230       -0.21565

 Excited State  17:      Singlet-A      4.1489 eV  298.84 nm  f=0.0225  <S**2>=0.000
     221 -> 227        0.27456
     221 -> 231       -0.16966
     221 -> 232       -0.11752
     223 -> 227       -0.26421
     223 -> 229       -0.11196
     223 -> 231       -0.13715
     224 -> 227        0.13802
     224 -> 229       -0.15491
     224 -> 230       -0.16017
     224 -> 231       -0.11299
     225 -> 229       -0.22864
     225 -> 230       -0.21522

 Excited State  18:      Singlet-A      4.1527 eV  298.56 nm  f=0.0184  <S**2>=0.000
     222 -> 228       -0.13460
     222 -> 231       -0.27266
     222 -> 232        0.34995
     223 -> 228       -0.26629
     223 -> 231        0.12861
     223 -> 232       -0.15815
     224 -> 229        0.12610
     225 -> 235       -0.11585
     225 -> 236       -0.12188

 Excited State  19:      Singlet-A      4.1976 eV  295.37 nm  f=0.0466  <S**2>=0.000
     222 -> 228        0.48192
     222 -> 231       -0.11134
     222 -> 232        0.14002
     223 -> 228        0.27447
     224 -> 228        0.13862
     226 -> 229        0.12236
     226 -> 230       -0.14504

 Excited State  20:      Singlet-A      4.2516 eV  291.62 nm  f=0.0097  <S**2>=0.000
     222 -> 228        0.11109
     224 -> 229       -0.15313
     224 -> 230        0.16658
     226 -> 229       -0.30656
     226 -> 230        0.38399
     226 -> 233       -0.14639
     226 -> 235       -0.14905
     226 -> 236        0.19135

 Excited State  21:      Singlet-A      4.2676 eV  290.53 nm  f=0.0130  <S**2>=0.000
     221 -> 227        0.33965
     221 -> 231        0.33549
     221 -> 232        0.23353
     222 -> 227       -0.12533
     223 -> 231        0.12930
     226 -> 235       -0.11297
     226 -> 236        0.16623

 Excited State  22:      Singlet-A      4.2832 eV  289.46 nm  f=0.0038  <S**2>=0.000
     221 -> 227       -0.20156
     226 -> 229        0.24304
     226 -> 230       -0.24187
     226 -> 232       -0.11294
     226 -> 233       -0.22785
     226 -> 235       -0.22293
     226 -> 236        0.27004
     226 -> 237        0.10002
     226 -> 241       -0.10358
     226 -> 244        0.10156
     226 -> 245        0.12373
     226 -> 246        0.10974

 Excited State  23:      Singlet-A      4.3179 eV  287.14 nm  f=0.0046  <S**2>=0.000
     222 -> 228        0.11634
     222 -> 231       -0.11469
     222 -> 232        0.15522
     224 -> 235       -0.12179
     225 -> 232       -0.21275
     225 -> 233        0.11051
     225 -> 234        0.19974
     225 -> 235        0.27385
     225 -> 236        0.23597
     225 -> 237       -0.15619
     225 -> 241       -0.14410
     225 -> 246       -0.16833

 Excited State  24:      Singlet-A      4.4063 eV  281.38 nm  f=0.0030  <S**2>=0.000
     223 -> 229       -0.15148
     223 -> 230       -0.13309
     224 -> 229       -0.30689
     224 -> 230       -0.27153
     225 -> 229        0.36573
     225 -> 230        0.33928

 Excited State  25:      Singlet-A      4.4604 eV  277.97 nm  f=0.0027  <S**2>=0.000
     226 -> 233       -0.14408
     226 -> 234        0.18429
     226 -> 235        0.18475
     226 -> 237        0.16713
     226 -> 239        0.52476

 The electronic state is 1-A.
 Alpha  occ. eigenvalues --  -77.25465 -77.25417 -19.26238 -19.26156 -19.15086
 Alpha  occ. eigenvalues --  -19.14488 -19.13960 -19.13924 -14.44312 -14.44277
 Alpha  occ. eigenvalues --  -14.43163 -14.43125 -10.31668 -10.31662 -10.29519
 Alpha  occ. eigenvalues --  -10.29461 -10.29032 -10.28960 -10.25908 -10.25827
 Alpha  occ. eigenvalues --  -10.25815 -10.25787 -10.25404 -10.25401 -10.25347
 Alpha  occ. eigenvalues --  -10.25231 -10.25160 -10.25152 -10.24815 -10.24808
 Alpha  occ. eigenvalues --  -10.24805 -10.24794 -10.24674 -10.24374 -10.24350
 Alpha  occ. eigenvalues --  -10.24225 -10.21744 -10.21731 -10.21730 -10.21697
 Alpha  occ. eigenvalues --  -10.21658 -10.21595 -10.21567 -10.21441 -10.21420
 Alpha  occ. eigenvalues --  -10.21162 -10.21079 -10.20983 -10.20967 -10.20454
 Alpha  occ. eigenvalues --  -10.20173 -10.20115  -6.63343  -6.63303  -4.76997
 Alpha  occ. eigenvalues --   -4.76958  -4.76903  -4.76859  -4.76664  -4.76626
 Alpha  occ. eigenvalues --   -3.04137  -3.04039  -1.88046  -1.87917  -1.86846
 Alpha  occ. eigenvalues --   -1.86793  -1.86462  -1.86385  -1.12856  -1.12736
 Alpha  occ. eigenvalues --   -1.00826  -1.00816  -0.96620  -0.96562  -0.94215
 Alpha  occ. eigenvalues --   -0.91923  -0.91401  -0.90843  -0.84966  -0.84917
 Alpha  occ. eigenvalues --   -0.83859  -0.83827  -0.83327  -0.83272  -0.82286
 Alpha  occ. eigenvalues --   -0.82165  -0.77741  -0.77612  -0.76909  -0.76810
 Alpha  occ. eigenvalues --   -0.74092  -0.74048  -0.70398  -0.70324  -0.70290
 Alpha  occ. eigenvalues --   -0.70051  -0.69866  -0.69791  -0.69347  -0.69026
 Alpha  occ. eigenvalues --   -0.68714  -0.68651  -0.66019  -0.65820  -0.65677
 Alpha  occ. eigenvalues --   -0.65288  -0.63879  -0.63074  -0.62006  -0.61879
 Alpha  occ. eigenvalues --   -0.57503  -0.57450  -0.57003  -0.56747  -0.55830
 Alpha  occ. eigenvalues --   -0.55551  -0.53493  -0.53206  -0.53085  -0.52898
 Alpha  occ. eigenvalues --   -0.51880  -0.51673  -0.50997  -0.50396  -0.50027
 Alpha  occ. eigenvalues --   -0.49522  -0.48710  -0.48437  -0.47724  -0.47480
 Alpha  occ. eigenvalues --   -0.46876  -0.46600  -0.46236  -0.45904  -0.45831
 Alpha  occ. eigenvalues --   -0.45628  -0.45570  -0.45258  -0.45082  -0.45009
 Alpha  occ. eigenvalues --   -0.44774  -0.44720  -0.44412  -0.44235  -0.44200
 Alpha  occ. eigenvalues --   -0.43850  -0.43699  -0.43645  -0.43522  -0.43224
 Alpha  occ. eigenvalues --   -0.43051  -0.43001  -0.42772  -0.42658  -0.42008
 Alpha  occ. eigenvalues --   -0.41991  -0.41862  -0.41691  -0.41133  -0.41082
 Alpha  occ. eigenvalues --   -0.40955  -0.40792  -0.40645  -0.39978  -0.39700
 Alpha  occ. eigenvalues --   -0.39338  -0.39156  -0.38739  -0.38588  -0.38315
 Alpha  occ. eigenvalues --   -0.38204  -0.38135  -0.37875  -0.37748  -0.37583
 Alpha  occ. eigenvalues --   -0.37434  -0.37266  -0.37133  -0.36755  -0.36568
 Alpha  occ. eigenvalues --   -0.36498  -0.36449  -0.36165  -0.35975  -0.35745
 Alpha  occ. eigenvalues --   -0.35648  -0.35427  -0.35129  -0.35051  -0.34682
 Alpha  occ. eigenvalues --   -0.34353  -0.34281  -0.34127  -0.33946  -0.33860
 Alpha  occ. eigenvalues --   -0.33508  -0.33216  -0.33022  -0.32582  -0.32470
 Alpha  occ. eigenvalues --   -0.32393  -0.32244  -0.31989  -0.31711  -0.31356
 Alpha  occ. eigenvalues --   -0.31160  -0.30300  -0.29881  -0.29628  -0.29501
 Alpha  occ. eigenvalues --   -0.28757  -0.27999  -0.27531  -0.26951  -0.26879
 Alpha  occ. eigenvalues --   -0.26729  -0.26599  -0.26337  -0.25425  -0.25312
 Alpha  occ. eigenvalues --   -0.22920  -0.22215  -0.20972  -0.20175  -0.19556
 Alpha  occ. eigenvalues --   -0.19087
 Alpha virt. eigenvalues --   -0.03837  -0.03791  -0.01767  -0.01721  -0.00017
 Alpha virt. eigenvalues --    0.00200   0.01324   0.01777   0.02278   0.02574
 Alpha virt. eigenvalues --    0.02911   0.03058   0.03202   0.03678   0.04350

 Mulliken charges:
               1
     1  H    0.063875
     2  C   -0.131683
     3  H    0.063294
     4  H    0.098900
     5  H    0.114205
     6  O   -0.528087
     7  H    0.061150
     8  O   -0.538652
     9  H    0.244575
    10  C    0.006775
    11  H    0.044435
    12  H    0.049898
    13  C   -0.067340
    14  H    0.109635
    15  H    0.054633
    16  H    0.063452
    17  C   -0.052906
    18  H    0.048313
    19  H    0.129790
    20  Ru   0.119075
    21  H    0.098268
    22  N   -0.382272
    23  C    0.122259
    24  C   -0.453187
    25  H    0.036949
    26  H    0.063217
    27  C   -0.042991
    28  C   -0.443819
    29  P    0.199023
    30  H    0.069348
    31  C    0.000967
    32  H    0.097325
    33  H    0.063083
    34  H    0.048107
    35  C   -0.051457
    36  H    0.045396
    37  C    0.001576
    38  C   -0.002842
    39  H    0.082789
    40  C   -0.034948
    41  H    0.039642
    42  H    0.053377
    43  C    0.016468
    44  N   -0.315460
    45  C   -0.074898
    46  H    0.066308
    47  H    0.129850
    48  H    0.061577
    49  H    0.065032
    50  C   -0.075414
    51  H    0.063026
    52  H    0.056534
    53  C    0.045886
    54  C   -0.050231
    55  H    0.066394
    56  H    0.034238
    57  H    0.122631
    58  H    0.083476
    59  C   -0.047320
    60  C    0.076947
    61  H    0.035772
    62  H    0.047577
    63  O   -0.188747
    64  C   -0.080851
    65  H    0.076869
    66  O   -0.536475
    67  H    0.065178
    68  O   -0.538577
    69  H    0.245538
    70  C   -0.035428
    71  H    0.048468
    72  C   -0.038227
    73  H    0.098972
    74  H    0.055243
    75  C   -0.045051
    76  H    0.047652
    77  H    0.129332
    78  Ru   0.093582
    79  H    0.113233
    80  N   -0.375781
    81  C    0.131263
    82  C   -0.456292
    83  H    0.038090
    84  H    0.060905
    85  C   -0.046117
    86  C   -0.444807
    87  P    0.186873
    88  H    0.071194
    89  C    0.000351
    90  H    0.100097
    91  H    0.099639
    92  H    0.048646
    93  C   -0.007076
    94  H    0.046717
    95  C   -0.017473
    96  C   -0.004070
    97  H    0.072475
    98  C   -0.035246
    99  H    0.040001
   100  H    0.052428
   101  C    0.021241
   102  N   -0.315319
   103  C   -0.124555
   104  H    0.069174
   105  H    0.058249
   106  H    0.063269
   107  H    0.065935
   108  C   -0.081191
   109  H    0.069651
   110  H    0.056470
   111  C    0.052115
   112  C   -0.047834
   113  H    0.066500
   114  H    0.034958
   115  H    0.122410
   116  H    0.086619
   117  C   -0.045864
   118  C    0.076557
   119  H    0.036143
   120  H    0.047459
   121  H    0.238710
   122  O   -0.186320
   123  H    0.064808
   124  H    0.060404
   125  H    0.065484
   126  H    0.081545
   127  H    0.090783
   128  H    0.228532
 Sum of Mulliken charges =  -0.00000

 Dipole moment (field-independent basis, Debye):
    X=             -0.2645    Y=             -7.5975    Z=              1.2211  Tot=              7.6995
 Quadrupole moment (field-independent basis, Debye-Ang):
   XX=           -249.9024   YY=           -333.2659   ZZ=           -373.6610
   XY=              3.0960   XZ=            -26.2688   YZ=              1.3500

 Normal termination of Gaussian 16 at Thu Aug 20 22:14:56 2020.
