 Gaussian 16, Revision A.03,
 Gaussian 16:  ES64L-G16RevA.03 25-Dec-2016

 ----------------------------------------------------------------------
 # genecp pbe1pbe EmpiricalDispersion=GD3BJ scrf=(SMD,solvent=water) ge
 om=allcheck
 ----------------------------------------------------------------------

 Structure from the checkpoint file:  "/scratch/js1212.578214/F-R2-R2-Down-GPOF-Disp.chk"
 -------------------
 Title Card Required
 -------------------
 Charge =  0 Multiplicity = 1

                         Standard orientation:
 ---------------------------------------------------------------------
 Center     Atomic      Atomic             Coordinates (Angstroms)
 Number     Number       Type             X           Y           Z
 ---------------------------------------------------------------------
      1          1           0        0.456688   -1.415543   -3.910186
      2          6           0       -0.608489   -1.191208   -3.761314
      3          1           0       -1.115359   -1.298841   -4.732756
      4          1           0       -0.689138   -0.147995   -3.421237
      5          1           0       -0.742968    0.908820    2.578566
      6          8           0       -0.733134    0.990691   -1.308105
      7          1           0       -0.864073    3.103158    1.532302
      8          8           0       -1.306545   -1.170523    0.327094
      9          1           0       -0.117981    0.239495   -1.318471
     10          6           0       -1.156049   -2.121354   -2.700528
     11          1           0       -1.341891    0.632340    4.243888
     12          1           0       -1.193937   -3.163626   -3.074474
     13          6           0       -1.549557    1.154463    3.293467
     14          1           0       -1.171424    2.920578   -0.199283
     15          1           0       -1.502050    2.232864    3.505264
     16          1           0       -0.494568   -2.112239   -1.824451
     17          6           0       -1.486834    3.465823    0.703587
     18          1           0       -1.286868    4.542678    0.570686
     19          1           0       -2.173477   -2.854878   -0.514451
     20         44           0       -2.517756    0.090583   -0.768734
     21          1           0       -2.326150   -1.226770    2.007940
     22          7           0       -2.494095   -1.726325   -2.214072
     23          6           0       -2.974188   -2.748207   -1.263999
     24          6           0       -2.934929    0.725465    2.803653
     25          1           0       -2.703223   -1.174972    3.772429
     26          1           0       -2.826441    3.735652    3.114007
     27          6           0       -2.998635   -0.808286    2.774266
     28          6           0       -2.981564    3.263451    0.971619
     29         15           0       -3.213706    1.378245    1.022070
     30          1           0       -3.152897   -3.720179   -1.754684
     31          6           0       -3.411913    4.015548    2.229515
     32          1           0       -3.116889   -0.676328   -3.904432
     33          1           0       -2.772344   -3.048496   -4.744441
     34          1           0       -3.249140    5.093187    2.059283
     35          6           0       -3.462210   -1.536119   -3.317261
     36          1           0       -3.767093    0.773297    4.776240
     37          6           0       -3.394992    1.146020   -1.984718
     38          6           0       -4.009163    1.200498    3.788484
     39          1           0       -3.484499    3.398297   -1.163729
     40          6           0       -3.769977    3.841994   -0.204276
     41          1           0       -4.058736    2.288109    3.907822
     42          1           0       -3.547886    4.920292   -0.265006
     43          6           0       -4.203923   -2.277376   -0.548017
     44          7           0       -4.188136   -0.971257   -0.219529
     45          6           0       -3.691834   -2.730519   -4.231517
     46          1           0       -4.021291   -1.171234    2.589086
     47          1           0       -4.415009   -1.230430   -2.860535
     48          1           0       -4.480867    3.878288    2.454358
     49          1           0       -4.104848   -3.600705   -3.699458
     50          6           0       -5.047854    1.043740    0.777575
     51          1           0       -4.420835   -2.448444   -5.005966
     52          1           0       -5.010973    0.830454    3.523440
     53          6           0       -5.211889   -0.410678    0.461240
     54          6           0       -5.278999   -3.087261   -0.201492
     55          1           0       -4.859060    3.744044   -0.074320
     56          1           0       -5.275918   -4.140917   -0.482922
     57          1           0       -5.329991    1.632039   -0.110683
     58          1           0       -5.694708    1.354080    1.609012
     59          6           0       -6.310915   -1.178964    0.837343
     60          6           0       -6.343793   -2.530211    0.503610
     61          1           0       -7.128154   -0.715768    1.391032
     62          1           0       -7.197947   -3.146359    0.789762
     63          8           0       -3.886775    1.769078   -2.837208
     64          6           0        0.534085   -3.717389    2.889716
     65          1           0        1.031909    1.208481   -2.611090
     66          8           0        0.650501    0.639164    1.170655
     67          1           0        1.125486    3.119745   -1.165329
     68          8           0        1.442615   -1.311025   -0.694848
     69          1           0        0.260650    1.024852    0.361092
     70          6           0        0.800545   -2.404188    2.170769
     71          1           0        1.682015    1.044328   -4.260912
     72          6           0        1.882014    1.462541   -3.260272
     73          1           0        1.451881    2.853300    0.548864
     74          1           0        1.900161    2.556318   -3.366622
     75          6           0        1.773921    3.426979   -0.332784
     76          1           0        1.609772    4.501606   -0.145304
     77          1           0        2.213203   -3.132607    0.233843
     78         44           0        2.487713   -0.147150    0.674085
     79          1           0        2.425275   -1.082334   -2.296850
     80          7           0        2.220144   -2.035480    1.981312
     81          6           0        2.884663   -3.016965    1.101618
     82          6           0        3.215235    0.907393   -2.754604
     83          1           0        3.065618   -0.852529   -3.972184
     84          1           0        3.146646    3.900863   -2.706111
     85          6           0        3.218908   -0.618717   -2.904292
     86          6           0        3.258425    3.185934   -0.623184
     87         15           0        3.393130    1.302216   -0.895282
     88          1           0        3.037756   -3.985364    1.608317
     89          6           0        3.723691    4.059805   -1.787697
     90          1           0        3.937894   -1.538049    3.054339
     91          1           0        1.860085   -0.159240    3.865307
     92          1           0        3.587013    5.114976   -1.496875
     93          6           0        2.939911   -1.948112    3.269605
     94          1           0        4.163817    1.160525   -4.657185
     95          6           0        3.317706    0.773897    2.016011
     96          6           0        4.364974    1.448233   -3.611432
     97          1           0        3.801612    3.071989    1.510826
     98          6           0        4.075510    3.610231    0.598523
     99          1           0        4.471943    2.537686   -3.588671
    100          1           0        3.879321    4.679927    0.781100
    101          6           0        4.184852   -2.510316    0.553986
    102          7           0        4.197297   -1.203073    0.237096
    103          6           0        2.231386   -1.094886    4.305166
    104          1           0        4.190480   -1.052751   -2.619580
    105          1           0        3.098823   -2.968323    3.670329
    106          1           0        4.792164    3.920685   -2.011521
    107          1           0        1.376860   -1.620622    4.754669
    108          6           0        5.185334    0.845320   -0.566710
    109          1           0        2.932764   -0.839136    5.112218
    110          1           0        5.330857    0.994791   -3.342590
    111          6           0        5.285521   -0.628892   -0.318671
    112          6           0        5.293193   -3.313760    0.308016
    113          1           0        5.159552    3.506933    0.434503
    114          1           0        5.266820   -4.370105    0.577503
    115          1           0        5.445038    1.365686    0.369851
    116          1           0        5.894684    1.175707   -1.337280
    117          6           0        6.414785   -1.392369   -0.604611
    118          6           0        6.416947   -2.747866   -0.288285
    119          1           0        7.283492   -0.919818   -1.063898
    120          1           0        7.295941   -3.359641   -0.498919
    121          1           0        0.519380   -1.286666   -0.381876
    122          8           0        3.843366    1.294687    2.918437
    123          1           0       -0.555540   -3.859169    2.951469
    124          1           0        0.926133   -3.740512    3.918384
    125          1           0        0.942917   -4.585910    2.350263
    126          1           0        0.339089   -2.420013    1.177889
    127          1           0        0.324311   -1.568253    2.696325
    128          1           0       -0.673430   -0.575065    0.790321
 ---------------------------------------------------------------------

 SCF Done:  E(RPBE1PBE) =  -3110.03053380     A.U. after   19 cycles

 The electronic state is 1-A.
 Alpha  occ. eigenvalues --  -77.25448 -77.25407 -19.24856 -19.24768 -19.13549
 Alpha  occ. eigenvalues --  -19.12960 -19.12542 -19.12458 -14.43237 -14.43199
 Alpha  occ. eigenvalues --  -14.42253 -14.42205 -10.30903 -10.30889 -10.28779
 Alpha  occ. eigenvalues --  -10.28719 -10.28282 -10.28209 -10.25132 -10.25043
 Alpha  occ. eigenvalues --  -10.24998 -10.24970 -10.24898 -10.24846 -10.24677
 Alpha  occ. eigenvalues --  -10.24663 -10.24602 -10.24432 -10.23999 -10.23982
 Alpha  occ. eigenvalues --  -10.23982 -10.23979 -10.23892 -10.23533 -10.23508
 Alpha  occ. eigenvalues --  -10.23452 -10.20743 -10.20720 -10.20709 -10.20707
 Alpha  occ. eigenvalues --  -10.20665 -10.20602 -10.20546 -10.20453 -10.20434
 Alpha  occ. eigenvalues --  -10.20197 -10.20075 -10.20027 -10.20013 -10.19516
 Alpha  occ. eigenvalues --  -10.19256 -10.19211  -6.62824  -6.62789  -4.76504
 Alpha  occ. eigenvalues --   -4.76470  -4.76412  -4.76372  -4.76180  -4.76146
 Alpha  occ. eigenvalues --   -3.04289  -3.04195  -1.88181  -1.88047  -1.86972
 Alpha  occ. eigenvalues --   -1.86916  -1.86598  -1.86532  -1.12528  -1.12404
 Alpha  occ. eigenvalues --   -1.00591  -1.00581  -0.96495  -0.96427  -0.94323
 Alpha  occ. eigenvalues --   -0.92046  -0.91542  -0.90971  -0.84887  -0.84837
 Alpha  occ. eigenvalues --   -0.83697  -0.83666  -0.83219  -0.83167  -0.82281
 Alpha  occ. eigenvalues --   -0.82163  -0.77734  -0.77616  -0.76863  -0.76772
 Alpha  occ. eigenvalues --   -0.74000  -0.73955  -0.70432  -0.70309  -0.70263
 Alpha  occ. eigenvalues --   -0.70057  -0.69892  -0.69823  -0.69391  -0.69071
 Alpha  occ. eigenvalues --   -0.68770  -0.68714  -0.66018  -0.65714  -0.65590
 Alpha  occ. eigenvalues --   -0.65327  -0.63814  -0.63022  -0.61946  -0.61821
 Alpha  occ. eigenvalues --   -0.57558  -0.57511  -0.56989  -0.56747  -0.55895
 Alpha  occ. eigenvalues --   -0.55614  -0.53555  -0.53258  -0.53135  -0.52950
 Alpha  occ. eigenvalues --   -0.51978  -0.51750  -0.51117  -0.50503  -0.50136
 Alpha  occ. eigenvalues --   -0.49604  -0.48819  -0.48548  -0.47852  -0.47533
 Alpha  occ. eigenvalues --   -0.47002  -0.46715  -0.46357  -0.46044  -0.45918
 Alpha  occ. eigenvalues --   -0.45749  -0.45712  -0.45389  -0.45237  -0.45144
 Alpha  occ. eigenvalues --   -0.44926  -0.44871  -0.44533  -0.44385  -0.44310
 Alpha  occ. eigenvalues --   -0.44004  -0.43877  -0.43828  -0.43662  -0.43328
 Alpha  occ. eigenvalues --   -0.43203  -0.43111  -0.42924  -0.42820  -0.42191
 Alpha  occ. eigenvalues --   -0.42111  -0.42012  -0.41838  -0.41296  -0.41245
 Alpha  occ. eigenvalues --   -0.41107  -0.40966  -0.40801  -0.40182  -0.39881
 Alpha  occ. eigenvalues --   -0.39508  -0.39343  -0.38930  -0.38708  -0.38489
 Alpha  occ. eigenvalues --   -0.38360  -0.38290  -0.38025  -0.37912  -0.37781
 Alpha  occ. eigenvalues --   -0.37636  -0.37441  -0.37311  -0.36883  -0.36716
 Alpha  occ. eigenvalues --   -0.36636  -0.36609  -0.36309  -0.36133  -0.35902
 Alpha  occ. eigenvalues --   -0.35785  -0.35590  -0.35267  -0.35180  -0.34801
 Alpha  occ. eigenvalues --   -0.34524  -0.34444  -0.34267  -0.34087  -0.34013
 Alpha  occ. eigenvalues --   -0.33672  -0.33382  -0.33188  -0.32731  -0.32623
 Alpha  occ. eigenvalues --   -0.32503  -0.32365  -0.32108  -0.31845  -0.31446
 Alpha  occ. eigenvalues --   -0.31256  -0.30580  -0.30145  -0.29768  -0.29624
 Alpha  occ. eigenvalues --   -0.29044  -0.28268  -0.27769  -0.27165  -0.27011
 Alpha  occ. eigenvalues --   -0.26861  -0.26742  -0.26507  -0.25707  -0.25660
 Alpha  occ. eigenvalues --   -0.23122  -0.22435  -0.21260  -0.20421  -0.19784
 Alpha  occ. eigenvalues --   -0.19316
 Alpha virt. eigenvalues --   -0.04113  -0.04068  -0.02064  -0.02017  -0.00268
 Alpha virt. eigenvalues --   -0.00044   0.00991   0.01468   0.01955   0.02234
 Alpha virt. eigenvalues --    0.02499   0.02675   0.02884   0.03016   0.03632

 Mulliken charges:
               1
     1  H    0.127028
     2  C   -0.369687
     3  H    0.118201
     4  H    0.137700
     5  H    0.145110
     6  O   -0.740732
     7  H    0.128707
     8  O   -0.806281
     9  H    0.262061
    10  C   -0.143699
    11  H    0.100327
    12  H    0.118450
    13  C   -0.403179
    14  H    0.128171
    15  H    0.120960
    16  H    0.144381
    17  C   -0.343552
    18  H    0.108511
    19  H    0.178978
    20  Ru   1.018112
    21  H    0.152448
    22  N   -0.200318
    23  C   -0.143543
    24  C    0.031080
    25  H    0.103900
    26  H    0.119694
    27  C   -0.407453
    28  C    0.000482
    29  P    0.075437
    30  H    0.127459
    31  C   -0.336602
    32  H    0.131411
    33  H    0.112522
    34  H    0.107788
    35  C   -0.129199
    36  H    0.106736
    37  C   -0.197654
    38  C   -0.336424
    39  H    0.138630
    40  C   -0.375638
    41  H    0.123097
    42  H    0.111749
    43  C    0.098439
    44  N   -0.147333
    45  C   -0.329031
    46  H    0.120095
    47  H    0.140505
    48  H    0.113552
    49  H    0.111355
    50  C   -0.243267
    51  H    0.117698
    52  H    0.112096
    53  C    0.027725
    54  C   -0.146077
    55  H    0.120902
    56  H    0.162666
    57  H    0.170976
    58  H    0.139504
    59  C   -0.116310
    60  C   -0.142728
    61  H    0.164119
    62  H    0.163221
    63  O   -0.298300
    64  C   -0.336112
    65  H    0.121550
    66  O   -0.789512
    67  H    0.130191
    68  O   -0.788587
    69  H    0.300458
    70  C   -0.124136
    71  H    0.107416
    72  C   -0.385923
    73  H    0.120959
    74  H    0.126271
    75  C   -0.338189
    76  H    0.110207
    77  H    0.177420
    78  Ru   1.000235
    79  H    0.156412
    80  N   -0.204069
    81  C   -0.119788
    82  C    0.030449
    83  H    0.105822
    84  H    0.120975
    85  C   -0.416916
    86  C    0.002596
    87  P    0.061493
    88  H    0.126976
    89  C   -0.337979
    90  H    0.143607
    91  H    0.121021
    92  H    0.107982
    93  C   -0.125922
    94  H    0.107308
    95  C   -0.176288
    96  C   -0.335927
    97  H    0.144488
    98  C   -0.381241
    99  H    0.123450
   100  H    0.110124
   101  C    0.084590
   102  N   -0.134643
   103  C   -0.345594
   104  H    0.121762
   105  H    0.119887
   106  H    0.112244
   107  H    0.119387
   108  C   -0.240870
   109  H    0.127544
   110  H    0.112011
   111  C    0.043850
   112  C   -0.155962
   113  H    0.119058
   114  H    0.162237
   115  H    0.170169
   116  H    0.141533
   117  C   -0.125180
   118  C   -0.136276
   119  H    0.163773
   120  H    0.163399
   121  H    0.292740
   122  O   -0.303135
   123  H    0.121771
   124  H    0.111332
   125  H    0.114002
   126  H    0.139687
   127  H    0.124179
   128  H    0.294712
 Sum of Mulliken charges =  -0.00000

 Dipole moment (field-independent basis, Debye):
    X=             -0.2658    Y=             -7.8978    Z=              1.2349  Tot=              7.9982
 Quadrupole moment (field-independent basis, Debye-Ang):
   XX=           -253.1280   YY=           -336.5783   ZZ=           -377.5750
   XY=              3.0436   XZ=            -27.0409   YZ=              1.3082

 Normal termination of Gaussian 16 at Fri Feb 28 14:35:39 2020.
