 Gaussian 16, Revision A.03,
 Gaussian 16:  ES64L-G16RevA.03 25-Dec-2016

 ----------------------------------------------------------------------
 # nmr genecp pbe1pbe EmpiricalDispersion=GD3BJ scrf=(SMD,solvent=water
 ) geom=allcheck
 ----------------------------------------------------------------------

 Structure from the checkpoint file:  "/scratch/js1212.15142/2-Full-Cis-A-GPOF.chk"
 -------------------
 Title Card Required
 -------------------
 Charge =  0 Multiplicity = 1

                         Standard orientation:
 ---------------------------------------------------------------------
 Center     Atomic      Atomic             Coordinates (Angstroms)
 Number     Number       Type             X           Y           Z
 ---------------------------------------------------------------------
      1          7           0        0.715656    1.371023    0.249671
      2          6           0        1.886008    1.906882   -0.149435
      3          6           0       -0.222029    2.132844    0.858485
      4          6           0        2.196848    3.235625    0.110326
      5          6           0        1.256948    4.029576    0.764424
      6          6           0        0.032577    3.475574    1.127837
      7          6           0        2.733219    0.980671   -0.969136
      8          1           0        3.158020    3.641555   -0.207540
      9          1           0        1.473201    5.077097    0.980437
     10          1           0       -0.730598    4.079156    1.620651
     11          6           0       -1.518310    1.447426    1.182178
     12          7           0        2.668004   -0.413822   -0.493688
     13          1           0        3.771126    1.351623   -1.033188
     14          1           0        2.308575    0.978717   -1.986631
     15          1           0       -1.442968    0.992425    2.185446
     16         15           0       -1.756562   -0.023851    0.031283
     17          1           0       -2.351191    2.166425    1.206960
     18         44           0        0.413459   -0.611379   -0.142549
     19          6           0        3.426902   -0.554438    0.772617
     20          6           0       -3.038648   -1.112674    0.918401
     21          6           0        3.179474   -1.305851   -1.559696
     22          6           0       -2.541994    0.748245   -1.530011
     23          6           0       -2.285112   -1.924158    1.972894
     24          6           0       -3.610646   -2.110504   -0.091374
     25          6           0       -4.151961   -0.324935    1.610733
     26          6           0       -1.685627    1.953761   -1.932091
     27          6           0       -3.977452    1.231273   -1.327701
     28          6           0       -2.478986   -0.267568   -2.673566
     29          1           0        0.328041   -0.248448   -1.772017
     30          1           0        2.994173    0.171316    1.477730
     31          6           0        4.934633   -0.365348    0.692583
     32          1           0        3.197228   -1.548357    1.175913
     33          1           0        2.496492   -1.165106   -2.409998
     34          6           0        3.195084   -2.765662   -1.160121
     35          1           0        4.184434   -0.961252   -1.877144
     36          6           0        0.609458   -1.124660    1.674064
     37          8           0        0.151964   -2.615054   -0.660953
     38          1           0       -0.040770   -2.606172   -1.605533
     39          1           0        2.182674   -3.053451   -0.821695
     40          1           0        3.938735   -2.982156   -0.377729
     41          1           0        3.462609   -3.371727   -2.039127
     42          1           0        5.356400   -0.474643    1.702969
     43          1           0        5.225658    0.631276    0.327692
     44          1           0        5.416724   -1.118287    0.052199
     45          1           0       -3.004697   -2.586540    2.482672
     46          1           0       -1.823356   -1.290100    2.743512
     47          1           0       -1.504964   -2.541165    1.505364
     48          1           0       -4.203420   -2.864838    0.452410
     49          1           0       -2.798424   -2.635663   -0.617466
     50          1           0       -4.275889   -1.639917   -0.827975
     51          1           0       -4.825867   -1.035945    2.117994
     52          1           0       -4.761702    0.269575    0.920357
     53          1           0       -3.754649    0.347583    2.386352
     54          1           0       -4.683284    0.406413   -1.162646
     55          1           0       -4.304891    1.762179   -2.237447
     56          1           0       -4.066834    1.939523   -0.489266
     57          1           0       -3.113477   -1.145471   -2.499851
     58          1           0       -1.443167   -0.607444   -2.817771
     59          1           0       -2.822654    0.217574   -3.602701
     60          1           0       -2.051231    2.334699   -2.900005
     61          1           0       -0.632348    1.663552   -2.052818
     62          1           0       -1.754002    2.779983   -1.208836
     63          8           0        0.813609   -1.396498    2.782362
 ---------------------------------------------------------------------

 SCF Done:  E(RPBE1PBE) =  -1479.79302666     A.U. after   17 cycles

      1  N    Isotropic =   -43.6123   Anisotropy =   406.4671

      2  C    Isotropic =    20.9219   Anisotropy =   167.0392

      3  C    Isotropic =    18.0403   Anisotropy =   176.4808

      4  C    Isotropic =    64.0729   Anisotropy =   167.5871

      5  C    Isotropic =    47.1639   Anisotropy =   201.1212

      6  C    Isotropic =    61.9824   Anisotropy =   166.5992

      7  C    Isotropic =   121.5833   Anisotropy =    49.7032

      8  H    Isotropic =    23.6831   Anisotropy =     7.2384

      9  H    Isotropic =    23.3911   Anisotropy =     4.1759

     10  H    Isotropic =    23.5912   Anisotropy =     8.3178

     11  C    Isotropic =   145.7525   Anisotropy =    29.6861

     12  N    Isotropic =   201.8588   Anisotropy =    62.2794

     13  H    Isotropic =    26.7750   Anisotropy =     8.0522

     14  H    Isotropic =    26.9790   Anisotropy =     4.2736

     15  H    Isotropic =    27.8122   Anisotropy =     4.7977

     16  P    Isotropic =   194.6280   Anisotropy =   251.8685

     17  H    Isotropic =    27.5344   Anisotropy =     8.4874

     18  Ru   Isotropic =  -525.3973   Anisotropy =   267.5306

     19  C    Isotropic =   135.3484   Anisotropy =    44.4385

     20  C    Isotropic =   145.5955   Anisotropy =    25.7604

     21  C    Isotropic =   130.7779   Anisotropy =    54.7440

     22  C    Isotropic =   146.3720   Anisotropy =    24.1028

     23  C    Isotropic =   151.4338   Anisotropy =    38.9580

     24  C    Isotropic =   158.3566   Anisotropy =    30.2695

     25  C    Isotropic =   161.4069   Anisotropy =    37.7107

     26  C    Isotropic =   159.3116   Anisotropy =    40.8115

     27  C    Isotropic =   160.9075   Anisotropy =    30.1888

     28  C    Isotropic =   160.6823   Anisotropy =    35.1959

     29  H    Isotropic =    31.0899   Anisotropy =    23.0321

     30  H    Isotropic =    28.5476   Anisotropy =     5.5538

     31  C    Isotropic =   181.3269   Anisotropy =    15.1662

     32  H    Isotropic =    27.5448   Anisotropy =     5.5239

     33  H    Isotropic =    27.6232   Anisotropy =     4.7658

     34  C    Isotropic =   176.2429   Anisotropy =    13.8377

     35  H    Isotropic =    28.0203   Anisotropy =     8.0192

     36  C    Isotropic =   -33.6388   Anisotropy =   429.3950

     37  O    Isotropic =   480.8831   Anisotropy =   238.0683

     38  H    Isotropic =    35.4830   Anisotropy =    24.7840

     39  H    Isotropic =    27.2493   Anisotropy =    15.7919

     40  H    Isotropic =    30.1100   Anisotropy =     7.5598

     41  H    Isotropic =    30.5091   Anisotropy =    11.4715

     42  H    Isotropic =    30.6646   Anisotropy =    11.8663

     43  H    Isotropic =    29.9696   Anisotropy =     9.0519

     44  H    Isotropic =    30.1331   Anisotropy =     8.7779

     45  H    Isotropic =    30.2915   Anisotropy =     9.2667

     46  H    Isotropic =    29.3276   Anisotropy =     6.8362

     47  H    Isotropic =    29.2397   Anisotropy =     7.9051

     48  H    Isotropic =    30.2335   Anisotropy =    10.2861

     49  H    Isotropic =    29.8979   Anisotropy =     5.9295

     50  H    Isotropic =    29.5249   Anisotropy =     6.9171

     51  H    Isotropic =    30.2956   Anisotropy =    10.9929

     52  H    Isotropic =    29.2325   Anisotropy =     7.1564

     53  H    Isotropic =    29.8726   Anisotropy =     7.5377

     54  H    Isotropic =    29.4678   Anisotropy =     7.5964

     55  H    Isotropic =    30.2508   Anisotropy =    10.8142

     56  H    Isotropic =    29.6175   Anisotropy =     7.2030

     57  H    Isotropic =    29.7841   Anisotropy =     7.0361

     58  H    Isotropic =    28.5784   Anisotropy =     7.7810

     59  H    Isotropic =    30.7731   Anisotropy =    10.5943

     60  H    Isotropic =    31.2692   Anisotropy =    10.1143

     61  H    Isotropic =    30.0644   Anisotropy =     8.0690

     62  H    Isotropic =    31.0930   Anisotropy =     7.0411

     63  O    Isotropic =   -36.5230   Anisotropy =   580.1875

 The electronic state is 1-A.
 Alpha  occ. eigenvalues --  -77.24904 -19.25369 -19.13282 -14.43247 -14.42401
 Alpha  occ. eigenvalues --  -10.30996 -10.28497 -10.28064 -10.25698 -10.24793
 Alpha  occ. eigenvalues --  -10.24694 -10.24573 -10.24571 -10.24375 -10.23940
 Alpha  occ. eigenvalues --  -10.23867 -10.23469 -10.20778 -10.20759 -10.20748
 Alpha  occ. eigenvalues --  -10.20689 -10.20477 -10.20427 -10.20233 -10.19760
 Alpha  occ. eigenvalues --   -6.62296  -4.75979  -4.75890  -4.75639  -3.02456
 Alpha  occ. eigenvalues --   -1.85989  -1.85303  -1.85155  -1.13107  -1.00365
 Alpha  occ. eigenvalues --   -0.96503  -0.92246  -0.84882  -0.83559  -0.83085
 Alpha  occ. eigenvalues --   -0.82478  -0.77690  -0.76838  -0.73826  -0.70490
 Alpha  occ. eigenvalues --   -0.70238  -0.69978  -0.69445  -0.69185  -0.65943
 Alpha  occ. eigenvalues --   -0.65566  -0.62969  -0.61789  -0.57631  -0.56728
 Alpha  occ. eigenvalues --   -0.55855  -0.53196  -0.52916  -0.51998  -0.51036
 Alpha  occ. eigenvalues --   -0.49946  -0.48363  -0.47421  -0.46344  -0.45872
 Alpha  occ. eigenvalues --   -0.45601  -0.45551  -0.45057  -0.44973  -0.44566
 Alpha  occ. eigenvalues --   -0.44139  -0.44072  -0.43866  -0.43137  -0.42672
 Alpha  occ. eigenvalues --   -0.41896  -0.41379  -0.40981  -0.40777  -0.39991
 Alpha  occ. eigenvalues --   -0.39267  -0.38797  -0.38388  -0.38244  -0.38017
 Alpha  occ. eigenvalues --   -0.38003  -0.36762  -0.36627  -0.36478  -0.36120
 Alpha  occ. eigenvalues --   -0.35432  -0.34835  -0.34675  -0.34392  -0.34124
 Alpha  occ. eigenvalues --   -0.33606  -0.32864  -0.32490  -0.32053  -0.31296
 Alpha  occ. eigenvalues --   -0.29673  -0.29202  -0.28024  -0.26898  -0.26507
 Alpha  occ. eigenvalues --   -0.25299  -0.23400  -0.21446  -0.18492
 Alpha virt. eigenvalues --   -0.03823  -0.02008  -0.00047   0.00756   0.01202
 Alpha virt. eigenvalues --    0.02759   0.02978   0.03245   0.03636   0.05797
 Alpha virt. eigenvalues --    0.06593   0.07623   0.07740   0.07862   0.08101

 Mulliken charges:
               1
     1  N   -0.162379
     2  C    0.112529
     3  C    0.047095
     4  C   -0.155721
     5  C   -0.145586
     6  C   -0.126851
     7  C   -0.096440
     8  H    0.161671
     9  H    0.162082
    10  H    0.163243
    11  C   -0.228026
    12  N   -0.211975
    13  H    0.125509
    14  H    0.167504
    15  H    0.160749
    16  P    0.115170
    17  H    0.144326
    18  Ru   0.579915
    19  C   -0.114394
    20  C    0.001923
    21  C   -0.112393
    22  C   -0.000329
    23  C   -0.353778
    24  C   -0.341188
    25  C   -0.332008
    26  C   -0.355707
    27  C   -0.333696
    28  C   -0.347299
    29  H   -0.386928
    30  H    0.136749
    31  C   -0.324908
    32  H    0.131135
    33  H    0.149222
    34  C   -0.364277
    35  H    0.113121
    36  C   -0.094670
    37  O   -0.708315
    38  H    0.263081
    39  H    0.135305
    40  H    0.106392
    41  H    0.112686
    42  H    0.117094
    43  H    0.110762
    44  H    0.111954
    45  H    0.109458
    46  H    0.117660
    47  H    0.134329
    48  H    0.106778
    49  H    0.117728
    50  H    0.121572
    51  H    0.108356
    52  H    0.122651
    53  H    0.113646
    54  H    0.118336
    55  H    0.107320
    56  H    0.116372
    57  H    0.119871
    58  H    0.135062
    59  H    0.106736
    60  H    0.110855
    61  H    0.140919
    62  H    0.115389
    63  O   -0.255391
 Sum of Mulliken charges =  -0.00000

 Dipole moment (field-independent basis, Debye):
    X=              0.4573    Y=             12.1807    Z=              0.2812  Tot=             12.1925
 Quadrupole moment (field-independent basis, Debye-Ang):
   XX=           -148.2080   YY=           -184.3488   ZZ=           -187.5282
   XY=              5.4754   XZ=             -6.6720   YZ=              6.1217

 Normal termination of Gaussian 16 at Sun Nov 11 15:47:39 2018.
