 Gaussian 16, Revision A.03,
 Gaussian 16:  ES64L-G16RevA.03 25-Dec-2016

 ----------------------------------------------------------------------
 # genecp pbe1pbe EmpiricalDispersion=GD3BJ scrf=(SMD,solvent=water) ge
 om=allcheck
 ----------------------------------------------------------------------

 Structure from the checkpoint file:  "/scratch/js1212.757590/H-Trans-R2-R2-Down-RuMove-T-GP-SMD.chk"
 -------------------
 Title Card Required
 -------------------
 Charge =  0 Multiplicity = 3

                         Standard orientation:
 ---------------------------------------------------------------------
 Center     Atomic      Atomic             Coordinates (Angstroms)
 Number     Number       Type             X           Y           Z
 ---------------------------------------------------------------------
      1          1           0       -0.896634    2.642960    3.714607
      2          6           0       -1.820509    2.116444    3.433224
      3          1           0       -2.520551    2.201599    4.278641
      4          1           0       -1.561646    1.057568    3.290413
      5          1           0       -0.287676   -1.170467   -1.923574
      6          8           0       -1.547929    1.149401   -0.368047
      7          1           0       -0.465054   -3.212523   -0.627480
      8          8           0       -0.384950    1.092686    0.488596
      9          1           0       -1.305707   -1.134138    2.371142
     10          6           0       -2.356896    2.723040    2.155473
     11          1           0       -0.427618   -1.229310   -3.695801
     12          1           0       -2.653934    3.776876    2.324402
     13          6           0       -0.842007   -1.631735   -2.755721
     14          1           0       -1.181920   -2.886589    0.960286
     15          1           0       -0.635092   -2.712397   -2.752443
     16          1           0       -1.574188    2.710335    1.386211
     17          6           0       -1.230787   -3.549767    0.084707
     18          1           0       -0.974291   -4.574574    0.403761
     19          1           0       -3.021543    2.812090   -0.249337
     20         44           0       -2.935060   -0.052551    0.622606
     21          1           0       -2.026962    0.777018   -2.207124
     22          7           0       -3.498818    1.981430    1.575449
     23          6           0       -3.934575    2.705224    0.361428
     24          6           0       -2.340212   -1.328584   -2.711504
     25          1           0       -2.102285    0.400600   -3.958473
     26          1           0       -1.914279   -4.322144   -2.464861
     27          6           0       -2.536411    0.171154   -2.969950
     28          6           0       -2.632044   -3.547133   -0.535221
     29         15           0       -3.011587   -1.724727   -0.960463
     30          1           0       -4.328244    3.708246    0.598317
     31          6           0       -2.681720   -4.525911   -1.707328
     32          1           0       -4.267393    1.162528    3.332437
     33          1           0       -4.467177    3.664879    3.698537
     34          1           0       -2.498818   -5.543599   -1.322257
     35          6           0       -4.620932    1.818993    2.527452
     36          1           0       -2.602174   -1.778736   -4.792104
     37          6           0       -3.826320   -1.035273    1.882545
     38          6           0       -3.066706   -2.073532   -3.835776
     39          1           0       -3.680050   -3.384622    1.395449
     40          6           0       -3.629922   -4.036709    0.516211
     41          1           0       -3.004934   -3.164876   -3.767071
     42          1           0       -3.308841   -5.033841    0.861175
     43          6           0       -4.925282    1.910265   -0.439370
     44          7           0       -4.608247    0.613005   -0.543718
     45          6           0       -5.205378    3.094698    3.115391
     46          1           0       -3.600016    0.448197   -3.014067
     47          1           0       -5.404048    1.254279    2.000429
     48          1           0       -3.666509   -4.536334   -2.198297
     49          1           0       -5.626427    3.763389    2.349443
     50          6           0       -4.874917   -1.671255   -1.245376
     51          1           0       -6.026065    2.825961    3.797307
     52          1           0       -4.127263   -1.787214   -3.899916
     53          6           0       -5.345742   -0.245857   -1.266679
     54          6           0       -6.045787    2.422060   -1.084478
     55          1           0       -4.644386   -4.150387    0.104380
     56          1           0       -6.299980    3.478959   -0.992802
     57          1           0       -5.302524   -2.149064   -0.348357
     58          1           0       -5.227028   -2.229856   -2.123860
     59          6           0       -6.472052    0.210339   -1.951575
     60          6           0       -6.820624    1.555876   -1.856532
     61          1           0       -7.067833   -0.482766   -2.547098
     62          1           0       -7.701647    1.929927   -2.381453
     63          8           0       -4.366850   -1.594298    2.761993
     64          6           0        2.251669   -4.293088    2.277548
     65          1           0        0.395835    1.339423   -1.784861
     66          8           0       -0.366530   -0.905908    2.488398
     67          1           0        0.737811    3.274010   -0.090125
     68          8           0        1.226089   -0.752209   -0.354289
     69          1           0       -0.310085   -0.130108    1.886961
     70          6           0        2.072815   -2.874842    1.754615
     71          1           0        0.506806    1.610814   -3.535870
     72          6           0        0.943194    1.886731   -2.560956
     73          1           0        1.646149    2.936775    1.376939
     74          1           0        0.752938    2.959085   -2.412399
     75          6           0        1.588822    3.615333    0.513888
     76          1           0        1.382446    4.637564    0.874638
     77          1           0        3.159705   -2.929641   -0.493435
     78         44           0        2.956888    0.028273    0.594413
     79          1           0        2.120875   -0.580006   -2.187379
     80          7           0        3.309177   -2.126482    1.419078
     81          6           0        3.953992   -2.773273    0.254597
     82          6           0        2.435509    1.552633   -2.579450
     83          1           0        2.133589   -0.103879   -3.911909
     84          1           0        2.011656    4.507139   -2.066294
     85          6           0        2.605753    0.068002   -2.929526
     86          6           0        2.908341    3.617260   -0.263543
     87         15           0        3.172277    1.813941   -0.834713
     88          1           0        4.374778   -3.757776    0.523488
     89          6           0        2.855667    4.657709   -1.381437
     90          1           0        5.095993   -1.459387    2.253202
     91          1           0        3.061369   -0.672034    3.663142
     92          1           0        2.729186    5.652764   -0.922122
     93          6           0        4.256341   -2.101809    2.556277
     94          1           0        2.666894    2.102902   -4.639266
     95          6           0        3.935238    0.880833    1.866099
     96          6           0        3.139497    2.357891   -3.675613
     97          1           0        4.193713    3.315799    1.504687
     98          6           0        4.037634    4.027571    0.685566
     99          1           0        3.058895    3.442868   -3.551224
    100          1           0        3.767249    4.995362    1.139921
    101          6           0        5.010081   -1.922679   -0.387866
    102          7           0        4.652257   -0.638289   -0.542528
    103          6           0        3.638090   -1.590238    3.841983
    104          1           0        3.666310   -0.210333   -3.026443
    105          1           0        4.669123   -3.117740    2.712598
    106          1           0        3.786246    4.686530   -1.968009
    107          1           0        2.966265   -2.328532    4.302236
    108          6           0        5.019013    1.673868   -1.147018
    109          1           0        4.433175   -1.358016    4.564625
    110          1           0        4.203790    2.093936   -3.767102
    111          6           0        5.471185    0.242050   -1.149036
    112          6           0        6.230623   -2.395054   -0.852913
    113          1           0        4.991478    4.177003    0.156304
    114          1           0        6.505824   -3.440756   -0.707789
    115          1           0        5.481921    2.153712   -0.268851
    116          1           0        5.375972    2.213750   -2.035699
    117          6           0        6.692757   -0.179402   -1.671611
    118          6           0        7.077075   -1.509806   -1.520993
    119          1           0        7.341101    0.536787   -2.178689
    120          1           0        8.036516   -1.852746   -1.911858
    121          1           0        0.799951   -1.324910    0.297067
    122          8           0        4.541137    1.391865    2.731211
    123          1           0        1.253788   -4.726836    2.441726
    124          1           0        2.784249   -4.331604    3.239143
    125          1           0        2.778133   -4.949980    1.568093
    126          1           0        1.486948   -2.916596    0.827320
    127          1           0        1.488773   -2.266471    2.456239
    128          1           0        0.219452    0.427045    0.023175
 ---------------------------------------------------------------------

 SCF Done:  E(UPBE1PBE) =  -3109.87621308     A.U. after   25 cycles

 Alpha virt. eigenvalues --    2.88619   2.88691   2.88875   2.88982   2.89043
 Alpha virt. eigenvalues --    2.89546   2.89688   2.89949   2.90054   2.90467
 Alpha virt. eigenvalues --    2.90734   2.91123   2.91403   2.91533   2.92040

  Beta  occ. eigenvalues --  -77.24903 -77.24777 -19.22851 -19.22752 -19.20688
  Beta  occ. eigenvalues --  -19.18461 -19.18028 -19.14251 -14.42295 -14.41981
  Beta  occ. eigenvalues --  -14.41662 -14.41532 -10.29270 -10.29258 -10.28230
  Beta  occ. eigenvalues --  -10.28121 -10.27760 -10.27605 -10.25577 -10.25047
  Beta  occ. eigenvalues --  -10.24736 -10.24680 -10.24598 -10.24563 -10.24524
  Beta  occ. eigenvalues --  -10.24464 -10.24331 -10.24284 -10.24024 -10.23815
  Beta  occ. eigenvalues --  -10.23764 -10.23737 -10.23706 -10.23660 -10.23075
  Beta  occ. eigenvalues --  -10.23044 -10.20679 -10.20670 -10.20665 -10.20640
  Beta  occ. eigenvalues --  -10.20581 -10.20540 -10.20497 -10.20394 -10.20351
  Beta  occ. eigenvalues --  -10.20330 -10.20253 -10.20203 -10.20073 -10.19838
  Beta  occ. eigenvalues --  -10.19651 -10.19425  -6.62255  -6.62111  -4.75928
  Beta  occ. eigenvalues --   -4.75854  -4.75787  -4.75714  -4.75615  -4.75461
  Beta  occ. eigenvalues --   -3.00342  -3.00239  -1.84886  -1.84726  -1.83886
  Beta  occ. eigenvalues --   -1.83557  -1.81044  -1.80922  -1.10377  -1.10364
  Beta  occ. eigenvalues --   -1.06869  -1.01326  -0.99826  -0.99669  -0.96321
  Beta  occ. eigenvalues --   -0.96055  -0.93915  -0.84583  -0.84542  -0.83151
  Beta  occ. eigenvalues --   -0.83112  -0.82805  -0.82762  -0.82303  -0.82195
  Beta  occ. eigenvalues --   -0.81596  -0.77780  -0.77570  -0.76655  -0.76488
  Beta  occ. eigenvalues --   -0.73680  -0.73589  -0.70258  -0.70212  -0.70099
  Beta  occ. eigenvalues --   -0.70005  -0.69780  -0.69722  -0.69373  -0.69198
  Beta  occ. eigenvalues --   -0.68883  -0.68690  -0.65825  -0.65378  -0.65258
  Beta  occ. eigenvalues --   -0.65152  -0.63312  -0.62644  -0.61497  -0.61384
  Beta  occ. eigenvalues --   -0.57596  -0.57331  -0.55850  -0.55601  -0.55445
  Beta  occ. eigenvalues --   -0.55363  -0.53112  -0.52936  -0.52867  -0.52486
  Beta  occ. eigenvalues --   -0.51696  -0.51446  -0.51181  -0.50649  -0.50413
  Beta  occ. eigenvalues --   -0.50167  -0.49311  -0.48562  -0.48385  -0.48065
  Beta  occ. eigenvalues --   -0.47317  -0.47233  -0.46459  -0.46252  -0.45874
  Beta  occ. eigenvalues --   -0.45667  -0.45439  -0.45009  -0.44912  -0.44826
  Beta  occ. eigenvalues --   -0.44564  -0.44439  -0.44236  -0.44092  -0.43869
  Beta  occ. eigenvalues --   -0.43566  -0.43501  -0.43387  -0.43215  -0.43073
  Beta  occ. eigenvalues --   -0.42730  -0.42637  -0.42517  -0.42467  -0.42383
  Beta  occ. eigenvalues --   -0.42134  -0.41799  -0.41593  -0.41238  -0.41188
  Beta  occ. eigenvalues --   -0.41040  -0.40958  -0.40535  -0.40465  -0.40263
  Beta  occ. eigenvalues --   -0.39689  -0.39586  -0.39411  -0.39132  -0.38622
  Beta  occ. eigenvalues --   -0.38469  -0.38344  -0.38065  -0.37833  -0.37785
  Beta  occ. eigenvalues --   -0.37722  -0.37559  -0.37480  -0.37218  -0.37155
  Beta  occ. eigenvalues --   -0.36638  -0.36453  -0.36289  -0.36206  -0.36097
  Beta  occ. eigenvalues --   -0.36033  -0.35800  -0.35713  -0.35174  -0.34744
  Beta  occ. eigenvalues --   -0.34533  -0.34283  -0.34218  -0.34113  -0.34078
  Beta  occ. eigenvalues --   -0.33864  -0.33618  -0.32973  -0.32946  -0.32916
  Beta  occ. eigenvalues --   -0.32632  -0.32411  -0.31937  -0.31738  -0.31241
  Beta  occ. eigenvalues --   -0.31099  -0.31042  -0.30541  -0.30382  -0.29862
  Beta  occ. eigenvalues --   -0.29451  -0.29304  -0.28749  -0.26790  -0.26605
  Beta  occ. eigenvalues --   -0.26537  -0.26410  -0.25185  -0.23391  -0.22347
  Beta  occ. eigenvalues --   -0.20936  -0.20193  -0.19578  -0.19201  -0.18614
  Beta virt. eigenvalues --   -0.04189  -0.03953  -0.01863  -0.01708  -0.01534
  Beta virt. eigenvalues --   -0.00756   0.00910   0.01016   0.01269   0.01591
  Beta virt. eigenvalues --    0.02726   0.02986   0.03271   0.03779   0.03872

 Mulliken charges and spin densities:
               1          2
     1  H    0.123099   0.000517
     2  C   -0.357691   0.000772
     3  H    0.116804   0.000031
     4  H    0.108386   0.002680
     5  H    0.107423  -0.000881
     6  O   -0.547289   0.004853
     7  H    0.125446   0.000268
     8  O   -0.374482   0.020012
     9  H    0.278768   0.019007
    10  C   -0.133890  -0.001021
    11  H    0.106872   0.000040
    12  H    0.116666  -0.000077
    13  C   -0.374055   0.000082
    14  H    0.115118  -0.004173
    15  H    0.123654   0.000007
    16  H    0.160750   0.000045
    17  C   -0.343940   0.002548
    18  H    0.111259   0.001077
    19  H    0.173063  -0.000106
    20  Ru   0.723635   0.905530
    21  H    0.160708  -0.000233
    22  N   -0.222838  -0.004957
    23  C   -0.138704   0.002941
    24  C    0.032914  -0.003912
    25  H    0.107259  -0.000028
    26  H    0.117750   0.000050
    27  C   -0.413592   0.000702
    28  C    0.004135  -0.002876
    29  P    0.054188  -0.015633
    30  H    0.127379  -0.000749
    31  C   -0.334215  -0.000331
    32  H    0.132107  -0.000554
    33  H    0.111792  -0.000021
    34  H    0.107415   0.000075
    35  C   -0.120814  -0.000622
    36  H    0.106029  -0.000376
    37  C   -0.253710  -0.013832
    38  C   -0.341867  -0.000150
    39  H    0.144452  -0.001719
    40  C   -0.373341   0.000223
    41  H    0.123152  -0.000007
    42  H    0.108860  -0.000092
    43  C    0.117255  -0.001246
    44  N   -0.176015   0.061150
    45  C   -0.329150   0.000041
    46  H    0.124776  -0.000255
    47  H    0.141880   0.000376
    48  H    0.113005   0.000017
    49  H    0.110993   0.000052
    50  C   -0.236021  -0.000584
    51  H    0.117166   0.000064
    52  H    0.111742  -0.000016
    53  C    0.025286   0.002182
    54  C   -0.159794   0.003995
    55  H    0.116796  -0.000055
    56  H    0.161022   0.001699
    57  H    0.164847  -0.000324
    58  H    0.138044  -0.001073
    59  C   -0.128829   0.002664
    60  C   -0.144981   0.000192
    61  H    0.161033   0.001455
    62  H    0.161304  -0.000160
    63  O   -0.339791   0.007475
    64  C   -0.330740   0.000173
    65  H    0.101519  -0.000173
    66  O   -0.550793   0.022383
    67  H    0.129691  -0.000635
    68  O   -0.818257   0.011069
    69  H    0.315424  -0.010786
    70  C   -0.129130  -0.001004
    71  H    0.111065   0.000179
    72  C   -0.365008   0.000230
    73  H    0.123127  -0.002039
    74  H    0.129222   0.000009
    75  C   -0.354046   0.002850
    76  H    0.109088   0.001204
    77  H    0.162817   0.000356
    78  Ru   0.751019   0.964383
    79  H    0.149398   0.000295
    80  N   -0.248049  -0.007009
    81  C   -0.096903   0.001635
    82  C    0.038746  -0.003600
    83  H    0.111225  -0.000006
    84  H    0.118730   0.000051
    85  C   -0.408019   0.001677
    86  C    0.009799  -0.002491
    87  P    0.026574  -0.020783
    88  H    0.128198  -0.000518
    89  C   -0.333126  -0.000523
    90  H    0.150077  -0.000165
    91  H    0.129178  -0.002759
    92  H    0.106949   0.000011
    93  C   -0.123331  -0.000235
    94  H    0.106896  -0.000467
    95  C   -0.216555  -0.029689
    96  C   -0.340269  -0.000352
    97  H    0.139955  -0.000705
    98  C   -0.370093   0.000546
    99  H    0.121647   0.000034
   100  H    0.107852  -0.000137
   101  C    0.089755   0.019004
   102  N   -0.196150   0.054588
   103  C   -0.346187   0.002984
   104  H    0.125821  -0.000158
   105  H    0.116738  -0.000351
   106  H    0.112016   0.000072
   107  H    0.119524   0.000152
   108  C   -0.228103  -0.000452
   109  H    0.125995   0.000125
   110  H    0.113655   0.000030
   111  C    0.065643   0.017658
   112  C   -0.162536  -0.006559
   113  H    0.112878  -0.000061
   114  H    0.160083   0.002078
   115  H    0.163299  -0.000049
   116  H    0.141216  -0.000895
   117  C   -0.145892  -0.007518
   118  C   -0.145794   0.021258
   119  H    0.160020   0.001730
   120  H    0.160618  -0.001281
   121  H    0.295940  -0.003569
   122  O   -0.341188  -0.001516
   123  H    0.120206  -0.000061
   124  H    0.113076  -0.000046
   125  H    0.112701   0.000168
   126  H    0.115466   0.000419
   127  H    0.141571  -0.000776
   128  H    0.356527  -0.006742
 Sum of Mulliken charges =  -0.00000   2.00000

 Dipole moment (field-independent basis, Debye):
    X=              0.0192    Y=             -2.0163    Z=            -10.5917  Tot=             10.7820
 Quadrupole moment (field-independent basis, Debye-Ang):
   XX=           -276.5330   YY=           -331.3598   ZZ=           -389.8391
   XY=            -34.1924   XZ=             -1.7057   YZ=              1.2601

 Normal termination of Gaussian 16 at Thu Jul 23 08:10:43 2020.
