 Gaussian 16, Revision A.03,
 Gaussian 16:  ES64L-G16RevA.03 25-Dec-2016

 ----------------------------------------------------------------------
 # nmr genecp pbe1pbe EmpiricalDispersion=GD3BJ scrf=(SMD,solvent=water
 ) geom=allcheck
 ----------------------------------------------------------------------

 Structure from the checkpoint file:  "/scratch/js1212.15143/2-Full-Cis-B-GPOF-Titan.chk"
 -------------------
 Title Card Required
 -------------------
 Charge =  0 Multiplicity = 1

                         Standard orientation:
 ---------------------------------------------------------------------
 Center     Atomic      Atomic             Coordinates (Angstroms)
 Number     Number       Type             X           Y           Z
 ---------------------------------------------------------------------
      1          7           0       -0.766491    1.418428   -0.071539
      2          6           0       -2.010359    1.852794    0.216700
      3          6           0        0.147935    2.263755   -0.599871
      4          6           0       -2.371241    3.183840    0.053720
      5          6           0       -1.417286    4.084849   -0.414037
      6          6           0       -0.151682    3.615751   -0.753201
      7          6           0       -2.922990    0.782410    0.732074
      8          1           0       -3.385741    3.505093    0.292837
      9          1           0       -1.665774    5.140259   -0.536830
     10          1           0        0.604469    4.289018   -1.158939
     11          6           0        1.431934    1.649252   -1.068826
     12          7           0       -2.688423   -0.504043    0.044796
     13          1           0       -3.976778    1.105864    0.664331
     14          1           0       -2.697354    0.618530    1.799058
     15          1           0        1.294444    1.387722   -2.132468
     16         15           0        1.736122   -0.003833   -0.236351
     17          1           0        2.269508    2.359791   -1.008524
     18         44           0       -0.406322   -0.585069    0.127531
     19          6           0       -3.131831   -0.436299   -1.370161
     20          6           0        2.763876   -0.972208   -1.509997
     21          6           0       -3.384592   -1.573803    0.796779
     22          6           0        2.816260    0.487154    1.258458
     23          6           0        1.791726   -1.545295   -2.546072
     24          6           0        3.423423   -2.155209   -0.797683
     25          6           0        3.813525   -0.124072   -2.230860
     26          6           0        2.062261    1.609076    1.982209
     27          6           0        4.207078    1.001442    0.889865
     28          6           0        2.949129   -0.700185    2.215249
     29          1           0       -0.382627   -0.543000   -1.522053
     30          1           0       -2.580343    0.396118   -1.829219
     31          6           0       -4.626686   -0.275891   -1.605633
     32          1           0       -2.755569   -1.344931   -1.855626
     33          1           0       -2.934359   -1.583702    1.800410
     34          6           0       -3.242215   -2.940353    0.160873
     35          1           0       -4.450148   -1.297131    0.928214
     36          6           0       -0.428805   -0.791623    2.012315
     37          8           0       -0.176391   -2.637433   -0.184453
     38          1           0        0.118224   -3.047410    0.637042
     39          1           0       -2.176361   -3.122475   -0.072932
     40          1           0       -3.843186   -3.038471   -0.756187
     41          1           0       -3.599039   -3.703829    0.868592
     42          1           0       -4.807813   -0.217488   -2.689429
     43          1           0       -5.034954    0.645102   -1.161545
     44          1           0       -5.208375   -1.127093   -1.222303
     45          1           0        2.375989   -2.147074   -3.263860
     46          1           0        1.274631   -0.755853   -3.111620
     47          1           0        1.033841   -2.175383   -2.055697
     48          1           0        3.865727   -2.824093   -1.554523
     49          1           0        2.675309   -2.734491   -0.235908
     50          1           0        4.232391   -1.846683   -0.120663
     51          1           0        4.329544   -0.758899   -2.970770
     52          1           0        4.578835    0.288287   -1.562347
     53          1           0        3.358372    0.708542   -2.788579
     54          1           0        4.852684    0.207762    0.489931
     55          1           0        4.696475    1.393063    1.797768
     56          1           0        4.173866    1.823428    0.158316
     57          1           0        3.522523   -1.528152    1.780666
     58          1           0        1.969802   -1.087468    2.520842
     59          1           0        3.477307   -0.369287    3.125374
     60          1           0        2.570816    1.824242    2.936346
     61          1           0        1.025088    1.325208    2.208798
     62          1           0        2.047567    2.543275    1.400920
     63          8           0       -0.466736   -0.987677    3.158239
 ---------------------------------------------------------------------

 SCF Done:  E(RPBE1PBE) =  -1479.79176793     A.U. after   17 cycles

      1  N    Isotropic =   -42.8784   Anisotropy =   400.5375

      2  C    Isotropic =    21.4887   Anisotropy =   164.9754

      3  C    Isotropic =    17.8285   Anisotropy =   174.7783

      4  C    Isotropic =    63.6150   Anisotropy =   167.8854

      5  C    Isotropic =    47.0217   Anisotropy =   201.0081

      6  C    Isotropic =    62.2694   Anisotropy =   165.5774

      7  C    Isotropic =   121.4880   Anisotropy =    49.8004

      8  H    Isotropic =    23.6790   Anisotropy =     7.3063

      9  H    Isotropic =    23.3804   Anisotropy =     4.2814

     10  H    Isotropic =    23.5842   Anisotropy =     8.6495

     11  C    Isotropic =   145.9656   Anisotropy =    31.3584

     12  N    Isotropic =   199.1904   Anisotropy =    60.8053

     13  H    Isotropic =    26.8903   Anisotropy =     8.1617

     14  H    Isotropic =    27.0201   Anisotropy =     4.0894

     15  H    Isotropic =    27.6882   Anisotropy =     4.6263

     16  P    Isotropic =   201.1314   Anisotropy =   247.3077

     17  H    Isotropic =    27.4733   Anisotropy =     7.9832

     18  Ru   Isotropic =  -514.4341   Anisotropy =   265.7849

     19  C    Isotropic =   133.7762   Anisotropy =    47.5161

     20  C    Isotropic =   147.8164   Anisotropy =    21.8460

     21  C    Isotropic =   131.4968   Anisotropy =    55.5578

     22  C    Isotropic =   144.6710   Anisotropy =    26.3016

     23  C    Isotropic =   151.1697   Anisotropy =    36.0597

     24  C    Isotropic =   158.7625   Anisotropy =    30.8305

     25  C    Isotropic =   160.7761   Anisotropy =    38.9869

     26  C    Isotropic =   159.7540   Anisotropy =    42.1067

     27  C    Isotropic =   160.3930   Anisotropy =    31.2659

     28  C    Isotropic =   160.0203   Anisotropy =    37.3276

     29  H    Isotropic =    31.1365   Anisotropy =    22.6411

     30  H    Isotropic =    28.7395   Anisotropy =     7.2346

     31  C    Isotropic =   181.6802   Anisotropy =    15.5205

     32  H    Isotropic =    27.7660   Anisotropy =     5.1230

     33  H    Isotropic =    27.4697   Anisotropy =     4.5847

     34  C    Isotropic =   177.0595   Anisotropy =    13.6374

     35  H    Isotropic =    28.0314   Anisotropy =     7.7811

     36  C    Isotropic =   -37.8116   Anisotropy =   418.2163

     37  O    Isotropic =   473.2119   Anisotropy =   239.5824

     38  H    Isotropic =    35.6283   Anisotropy =    24.3156

     39  H    Isotropic =    26.9261   Anisotropy =    17.1746

     40  H    Isotropic =    30.2346   Anisotropy =     7.8286

     41  H    Isotropic =    30.4900   Anisotropy =    11.3530

     42  H    Isotropic =    30.8341   Anisotropy =    11.8644

     43  H    Isotropic =    30.1607   Anisotropy =     8.8267

     44  H    Isotropic =    30.2458   Anisotropy =     8.8519

     45  H    Isotropic =    30.5689   Anisotropy =     9.3396

     46  H    Isotropic =    29.4785   Anisotropy =     6.2492

     47  H    Isotropic =    28.4490   Anisotropy =     9.7558

     48  H    Isotropic =    30.2956   Anisotropy =    10.2985

     49  H    Isotropic =    29.9507   Anisotropy =     6.0010

     50  H    Isotropic =    29.5448   Anisotropy =     7.1450

     51  H    Isotropic =    30.3325   Anisotropy =    10.7994

     52  H    Isotropic =    29.3172   Anisotropy =     7.3914

     53  H    Isotropic =    29.8313   Anisotropy =     7.3332

     54  H    Isotropic =    29.5137   Anisotropy =     7.5270

     55  H    Isotropic =    30.1942   Anisotropy =    10.8221

     56  H    Isotropic =    29.5677   Anisotropy =     7.1630

     57  H    Isotropic =    29.6612   Anisotropy =     6.8829

     58  H    Isotropic =    29.2647   Anisotropy =     8.6618

     59  H    Isotropic =    30.5531   Anisotropy =    10.5102

     60  H    Isotropic =    30.9697   Anisotropy =    10.3255

     61  H    Isotropic =    30.1526   Anisotropy =     6.8588

     62  H    Isotropic =    30.6291   Anisotropy =     6.8514

     63  O    Isotropic =   -48.8693   Anisotropy =   542.7680

 The electronic state is 1-A.
 Alpha  occ. eigenvalues --  -77.24779 -19.25145 -19.13351 -14.43292 -14.42423
 Alpha  occ. eigenvalues --  -10.30816 -10.28497 -10.28050 -10.25808 -10.24798
 Alpha  occ. eigenvalues --  -10.24527 -10.24525 -10.24474 -10.24403 -10.23941
 Alpha  occ. eigenvalues --  -10.23864 -10.23271 -10.20726 -10.20690 -10.20678
 Alpha  occ. eigenvalues --  -10.20661 -10.20593 -10.20397 -10.19902 -10.19714
 Alpha  occ. eigenvalues --   -6.62165  -4.75847  -4.75758  -4.75514  -3.02491
 Alpha  occ. eigenvalues --   -1.86100  -1.85278  -1.85193  -1.12724  -1.00377
 Alpha  occ. eigenvalues --   -0.96437  -0.92307  -0.84799  -0.83590  -0.83025
 Alpha  occ. eigenvalues --   -0.82402  -0.77595  -0.76868  -0.73830  -0.70396
 Alpha  occ. eigenvalues --   -0.70232  -0.69879  -0.69413  -0.69055  -0.65937
 Alpha  occ. eigenvalues --   -0.65578  -0.62928  -0.61695  -0.57558  -0.56709
 Alpha  occ. eigenvalues --   -0.55806  -0.53155  -0.52906  -0.51851  -0.51041
 Alpha  occ. eigenvalues --   -0.50015  -0.48195  -0.47548  -0.46461  -0.45872
 Alpha  occ. eigenvalues --   -0.45585  -0.45161  -0.44885  -0.44861  -0.44340
 Alpha  occ. eigenvalues --   -0.44148  -0.43889  -0.43401  -0.43219  -0.42463
 Alpha  occ. eigenvalues --   -0.41834  -0.41602  -0.41207  -0.41035  -0.40007
 Alpha  occ. eigenvalues --   -0.39159  -0.38848  -0.38492  -0.38295  -0.38077
 Alpha  occ. eigenvalues --   -0.37877  -0.36811  -0.36557  -0.36212  -0.36045
 Alpha  occ. eigenvalues --   -0.35515  -0.34863  -0.34518  -0.34316  -0.34070
 Alpha  occ. eigenvalues --   -0.33398  -0.32896  -0.32358  -0.32141  -0.31341
 Alpha  occ. eigenvalues --   -0.29643  -0.29085  -0.27979  -0.27216  -0.26357
 Alpha  occ. eigenvalues --   -0.24870  -0.23288  -0.21383  -0.18714
 Alpha virt. eigenvalues --   -0.03839  -0.01999   0.00152   0.00602   0.01284
 Alpha virt. eigenvalues --    0.02906   0.03151   0.03178   0.03632   0.05702
 Alpha virt. eigenvalues --    0.06488   0.07634   0.07714   0.07884   0.08089

 Mulliken charges:
               1
     1  N   -0.157366
     2  C    0.087784
     3  C    0.064914
     4  C   -0.156205
     5  C   -0.142092
     6  C   -0.136951
     7  C   -0.090609
     8  H    0.161956
     9  H    0.162097
    10  H    0.161789
    11  C   -0.250017
    12  N   -0.220031
    13  H    0.126420
    14  H    0.169915
    15  H    0.162872
    16  P    0.123480
    17  H    0.148767
    18  Ru   0.622826
    19  C   -0.125956
    20  C    0.005877
    21  C   -0.108986
    22  C   -0.005041
    23  C   -0.366687
    24  C   -0.345812
    25  C   -0.333647
    26  C   -0.355829
    27  C   -0.333439
    28  C   -0.353509
    29  H   -0.397549
    30  H    0.140990
    31  C   -0.323100
    32  H    0.143016
    33  H    0.138199
    34  C   -0.361973
    35  H    0.111307
    36  C   -0.084569
    37  O   -0.702357
    38  H    0.255932
    39  H    0.134579
    40  H    0.106169
    41  H    0.111124
    42  H    0.116611
    43  H    0.110410
    44  H    0.111283
    45  H    0.103624
    46  H    0.120034
    47  H    0.147769
    48  H    0.106451
    49  H    0.120187
    50  H    0.121387
    51  H    0.107414
    52  H    0.121449
    53  H    0.112983
    54  H    0.117635
    55  H    0.107106
    56  H    0.117126
    57  H    0.119864
    58  H    0.132019
    59  H    0.107797
    60  H    0.112305
    61  H    0.143727
    62  H    0.116571
    63  O   -0.262042
 Sum of Mulliken charges =  -0.00000

 Dipole moment (field-independent basis, Debye):
    X=             -0.8756    Y=             11.3492    Z=             -0.7916  Tot=             11.4104
 Quadrupole moment (field-independent basis, Debye-Ang):
   XX=           -147.9716   YY=           -178.7089   ZZ=           -192.5447
   XY=             -5.2772   XZ=             -2.7639   YZ=             -6.7028

 Normal termination of Gaussian 16 at Sun Nov 11 15:46:55 2018.
