 Gaussian 16, Revision A.03,
 Gaussian 16:  ES64L-G16RevA.03 25-Dec-2016

 -------------------------------------------------------------------
 # genecp pbe1pbe EmpiricalDispersion=GD3BJ scrf=(SMD,solvent=water)
 -------------------------------------------------------------------

 -------------------
 Title card Required
 -------------------
 Symbolic Z-matrix:
 Charge =  0 Multiplicity = 3

                         Standard orientation:
 ---------------------------------------------------------------------
 Center     Atomic      Atomic             Coordinates (Angstroms)
 Number     Number       Type             X           Y           Z
 ---------------------------------------------------------------------
      1          1           0       -3.499683   -3.656822    1.378705
      2          6           0       -3.070286   -3.107447    0.528259
      3          1           0       -3.609310   -3.429950   -0.375273
      4          1           0       -2.019756   -3.410459    0.435118
      5          1           0        1.458668   -0.647026    2.581599
      6          8           0       -0.938627    0.027683    2.424557
      7          1           0        4.311704   -1.707335    0.206361
      8          8           0       -0.576920   -0.254809    3.646531
      9          6           0       -3.204403   -1.625086    0.797661
     10          1           0        3.004524   -0.098947    3.267808
     11          1           0       -4.276663   -1.354835    0.857779
     12          6           0        2.510002   -0.431616    2.339579
     13          1           0        2.856503   -2.687123   -0.109729
     14          1           0        2.999733   -1.362361    2.019392
     15          1           0       -2.742969   -1.367659    1.761994
     16          6           0        3.630512   -2.063896   -0.578655
     17          1           0        4.215623   -2.709858   -1.254542
     18          1           0       -2.813570    0.766112    1.218680
     19         44           0       -0.305958   -0.686421   -0.088757
     20          1           0        0.731725    1.687500    1.788231
     21          7           0       -2.543228   -0.741805   -0.196516
     22          6           0       -2.935817    0.645082    0.131210
     23          6           0        2.632429    0.682304    1.294159
     24          1           0        2.124979    2.150243    2.782916
     25          1           0        4.812567    0.367129   -1.238090
     26          6           0        1.810716    1.889985    1.758543
     27          6           0        3.028093   -0.913166   -1.387533
     28         15           0        1.816028    0.061372   -0.298081
     29          1           0       -3.996243    0.836961   -0.103725
     30          6           0        4.145989   -0.062898   -1.994928
     31          1           0       -2.446925   -2.060882   -1.808390
     32          1           0       -4.944903   -1.787669   -1.369072
     33          1           0        4.760898   -0.700851   -2.651880
     34          6           0       -2.885550   -1.075393   -1.600659
     35          1           0        4.429689    1.560173    2.084300
     36          6           0        0.191349   -2.402752    0.320870
     37          6           0        4.088157    1.114344    1.135058
     38          1           0        1.393563   -2.159450   -2.138979
     39          6           0        2.186078   -1.503095   -2.524698
     40          1           0        4.758448    0.272201    0.912935
     41          1           0        2.839931   -2.089748   -3.191501
     42          6           0       -2.052646    1.663738   -0.517280
     43          7           0       -0.771669    1.285159   -0.667586
     44          6           0       -4.363722   -1.068420   -1.964430
     45          1           0        1.985935    2.776204    1.128496
     46          1           0       -2.340255   -0.358502   -2.234029
     47          1           0        3.758019    0.757269   -2.617417
     48          1           0       -4.824992   -0.076641   -1.848628
     49          6           0        1.540525    1.612070   -1.316315
     50          1           0       -4.470170   -1.353311   -3.021744
     51          1           0        4.216833    1.879367    0.353026
     52          6           0        0.154238    2.150270   -1.128929
     53          6           0       -2.474445    2.942053   -0.857975
     54          1           0        1.704668   -0.723483   -3.136611
     55          1           0       -3.518336    3.224534   -0.724277
     56          1           0        1.644239    1.300715   -2.369120
     57          1           0        2.299344    2.388739   -1.139401
     58          6           0       -0.202002    3.457606   -1.447769
     59          6           0       -1.530309    3.852356   -1.318009
     60          1           0        0.557973    4.152637   -1.806001
     61          1           0       -1.826538    4.871604   -1.572353
     62          8           0        0.558934   -3.482251    0.564373
     63          8           0       -1.622066    2.587011    2.230821
     64          1           0       -1.403804    1.637047    2.412208
     65          1           0       -1.269463    3.035640    3.007234
 ---------------------------------------------------------------------

 SCF Done:  E(UPBE1PBE) =  -1630.06191693     A.U. after   32 cycles

 The electronic state is 3-A.
 Alpha  occ. eigenvalues --  -77.24823 -19.24051 -19.23061 -19.21758 -19.18137
 Alpha  occ. eigenvalues --  -14.42871 -14.42592 -10.30241 -10.28934 -10.28465
 Alpha  occ. eigenvalues --  -10.25682 -10.25165 -10.24928 -10.24840 -10.24680
 Alpha  occ. eigenvalues --  -10.24568 -10.23982 -10.23915 -10.23557 -10.20929
 Alpha  occ. eigenvalues --  -10.20842 -10.20751 -10.20745 -10.20744 -10.20722
 Alpha  occ. eigenvalues --  -10.20471 -10.20244  -6.62275  -4.75966  -4.75855
 Alpha  occ. eigenvalues --   -4.75613  -3.03316  -1.87692  -1.86191  -1.86091
 Alpha  occ. eigenvalues --   -1.14308  -1.11763  -1.01315  -1.00551  -0.96803
 Alpha  occ. eigenvalues --   -0.85016  -0.83805  -0.83270  -0.82541  -0.78163
 Alpha  occ. eigenvalues --   -0.77570  -0.77063  -0.74159  -0.70614  -0.70399
 Alpha  occ. eigenvalues --   -0.70032  -0.69453  -0.69438  -0.66344  -0.65777
 Alpha  occ. eigenvalues --   -0.63255  -0.61969  -0.57956  -0.56319  -0.56079
 Alpha  occ. eigenvalues --   -0.53327  -0.53052  -0.52894  -0.51893  -0.50979
 Alpha  occ. eigenvalues --   -0.49907  -0.48461  -0.47770  -0.46606  -0.46285
 Alpha  occ. eigenvalues --   -0.45987  -0.45646  -0.45424  -0.44895  -0.44759
 Alpha  occ. eigenvalues --   -0.44681  -0.44050  -0.43799  -0.43746  -0.43242
 Alpha  occ. eigenvalues --   -0.42867  -0.42263  -0.42041  -0.41592  -0.41311
 Alpha  occ. eigenvalues --   -0.41180  -0.39851  -0.39409  -0.39111  -0.38808
 Alpha  occ. eigenvalues --   -0.38408  -0.38285  -0.38144  -0.37950  -0.36932
 Alpha  occ. eigenvalues --   -0.36658  -0.36480  -0.36185  -0.35293  -0.34796
 Alpha  occ. eigenvalues --   -0.34672  -0.34550  -0.33501  -0.33242  -0.32810
 Alpha  occ. eigenvalues --   -0.32500  -0.32166  -0.31685  -0.31186  -0.29571
 Alpha  occ. eigenvalues --   -0.27257  -0.26730  -0.24495  -0.23936  -0.23258
 Alpha  occ. eigenvalues --   -0.22280  -0.21350  -0.18472
 Alpha virt. eigenvalues --   -0.04761  -0.02147   0.00497   0.01149   0.01365
 Alpha virt. eigenvalues --    0.03037   0.03106   0.03316   0.04477   0.06002
 Alpha virt. eigenvalues --    0.07288   0.07388   0.07708   0.07928   0.08338

  Beta  occ. eigenvalues --  -77.24835 -19.24112 -19.21421 -19.20120 -19.18126
  Beta  occ. eigenvalues --  -14.42870 -14.42607 -10.30332 -10.28933 -10.28465
  Beta  occ. eigenvalues --  -10.25681 -10.25166 -10.24921 -10.24841 -10.24674
  Beta  occ. eigenvalues --  -10.24576 -10.23981 -10.23915 -10.23559 -10.20921
  Beta  occ. eigenvalues --  -10.20828 -10.20752 -10.20745 -10.20743 -10.20723
  Beta  occ. eigenvalues --  -10.20468 -10.20243  -6.62289  -4.75975  -4.75865
  Beta  occ. eigenvalues --   -4.75644  -3.00155  -1.85111  -1.83559  -1.80445
  Beta  occ. eigenvalues --   -1.11863  -1.10913  -1.01275  -1.00550  -0.96796
  Beta  occ. eigenvalues --   -0.85022  -0.83805  -0.83268  -0.82543  -0.78066
  Beta  occ. eigenvalues --   -0.77153  -0.74160  -0.72652  -0.70596  -0.70396
  Beta  occ. eigenvalues --   -0.70012  -0.69449  -0.69420  -0.66323  -0.65773
  Beta  occ. eigenvalues --   -0.63250  -0.61976  -0.57925  -0.56409  -0.56079
  Beta  occ. eigenvalues --   -0.53315  -0.53030  -0.52668  -0.51846  -0.50832
  Beta  occ. eigenvalues --   -0.49866  -0.48430  -0.47754  -0.46492  -0.45897
  Beta  occ. eigenvalues --   -0.45818  -0.45594  -0.45254  -0.44773  -0.44328
  Beta  occ. eigenvalues --   -0.43993  -0.43754  -0.43288  -0.42956  -0.42715
  Beta  occ. eigenvalues --   -0.42307  -0.41774  -0.41612  -0.41228  -0.40687
  Beta  occ. eigenvalues --   -0.39847  -0.39411  -0.39180  -0.38791  -0.38381
  Beta  occ. eigenvalues --   -0.38269  -0.38027  -0.37927  -0.36925  -0.36650
  Beta  occ. eigenvalues --   -0.36479  -0.36177  -0.35873  -0.35234  -0.34766
  Beta  occ. eigenvalues --   -0.34485  -0.34053  -0.33449  -0.32839  -0.32780
  Beta  occ. eigenvalues --   -0.32345  -0.31912  -0.31324  -0.31141  -0.29516
  Beta  occ. eigenvalues --   -0.27046  -0.26646  -0.22935  -0.21677  -0.20095
  Beta  occ. eigenvalues --   -0.18607
  Beta virt. eigenvalues --   -0.05147  -0.04826  -0.03376  -0.02102   0.01021
  Beta virt. eigenvalues --    0.01714   0.01827   0.03098   0.03240   0.03443
  Beta virt. eigenvalues --    0.04846   0.06034   0.07331   0.07501   0.07757

 Mulliken charges and spin densities:
               1          2
     1  H    0.120833  -0.000034
     2  C   -0.343720   0.000293
     3  H    0.112971  -0.000058
     4  H    0.129693   0.000329
     5  H    0.114117  -0.002581
     6  O   -0.300853   0.503571
     7  H    0.121188  -0.000038
     8  O   -0.380914   0.555761
     9  C   -0.132070   0.006190
    10  H    0.106602   0.000556
    11  H    0.118281   0.000364
    12  C   -0.350798  -0.000662
    13  H    0.129052   0.000015
    14  H    0.120613   0.000119
    15  H    0.146384  -0.003132
    16  C   -0.352688   0.000093
    17  H    0.107347  -0.000019
    18  H    0.154753   0.001617
    19  Ru   0.822402   1.065388
    20  H    0.086140  -0.002145
    21  N   -0.275071  -0.001355
    22  C   -0.079578  -0.000398
    23  C    0.014518  -0.001907
    24  H    0.110065   0.000314
    25  H    0.121040   0.000050
    26  C   -0.341926   0.001370
    27  C   -0.015256  -0.001731
    28  P    0.043797  -0.028201
    29  H    0.132853   0.000636
    30  C   -0.328696  -0.000348
    31  H    0.134973   0.000500
    32  H    0.113004   0.000075
    33  H    0.108995  -0.000043
    34  C   -0.122865   0.001553
    35  H    0.107511  -0.000326
    36  C   -0.209538  -0.062619
    37  C   -0.336706  -0.000483
    38  H    0.129699  -0.003591
    39  C   -0.343271   0.000638
    40  H    0.119272   0.000075
    41  H    0.112965   0.001953
    42  C    0.086180   0.002420
    43  N   -0.207471  -0.007913
    44  C   -0.317355   0.003407
    45  H    0.117526  -0.000452
    46  H    0.143327  -0.001304
    47  H    0.113842   0.000052
    48  H    0.112115   0.000012
    49  C   -0.259303  -0.006069
    50  H    0.119444  -0.000181
    51  H    0.115985   0.000052
    52  C    0.050128  -0.001682
    53  C   -0.162348   0.000448
    54  H    0.121593  -0.000120
    55  H    0.161789  -0.000104
    56  H    0.159676   0.000108
    57  H    0.146986   0.000130
    58  C   -0.129862   0.000201
    59  C   -0.125584  -0.000456
    60  H    0.162324  -0.000069
    61  H    0.163422   0.000032
    62  O   -0.291178  -0.019674
    63  O   -0.566980   0.003514
    64  H    0.305328  -0.004000
    65  H    0.255298  -0.000138
 Sum of Mulliken charges =  -0.00000   2.00000

 Dipole moment (field-independent basis, Debye):
    X=              0.1111    Y=              6.7126    Z=            -13.7748  Tot=             15.3238
 Quadrupole moment (field-independent basis, Debye-Ang):
   XX=           -158.9700   YY=           -189.5763   ZZ=           -215.0780
   XY=              8.5477   XZ=              7.4580   YZ=              0.3467

 Normal termination of Gaussian 16 at Thu Jul 23 00:43:07 2020.
