 Gaussian 16, Revision A.03,
 Gaussian 16:  ES64L-G16RevA.03 25-Dec-2016

 -------------------------------------------------------------------
 # genecp pbe1pbe EmpiricalDispersion=GD3BJ scrf=(SMD,solvent=water)
 -------------------------------------------------------------------

 -------------------
 Title card Required
 -------------------
 Symbolic Z-matrix:
 Charge =  0 Multiplicity = 3

                         Standard orientation:
 ---------------------------------------------------------------------
 Center     Atomic      Atomic             Coordinates (Angstroms)
 Number     Number       Type             X           Y           Z
 ---------------------------------------------------------------------
      1          1           0       -3.285099   -3.166565    2.131278
      2          6           0       -2.889463   -2.731806    1.202007
      3          1           0       -3.320506   -3.293074    0.359102
      4          1           0       -1.796719   -2.874363    1.193657
      5          1           0        1.897493   -0.495546    2.735388
      6          8           0       -0.629836   -0.188599    2.208819
      7          1           0        3.007394   -2.457808    1.028863
      8          8           0       -0.192655   -0.810832    3.291988
      9          6           0       -3.219209   -1.256452    1.156263
     10          1           0        3.079166    0.684302    3.355655
     11          1           0       -4.312848   -1.094948    1.135732
     12          6           0        2.797352    0.082925    2.474824
     13          1           0        1.912075   -2.939275   -0.277715
     14          1           0        3.626315   -0.613880    2.278201
     15          1           0       -2.833798   -0.758287    2.053857
     16          6           0        2.922938   -2.566141   -0.062456
     17          1           0        3.657703   -3.320891   -0.389093
     18          1           0       -2.744031    1.172761    1.201910
     19         44           0       -0.316355   -0.694619    0.026503
     20          1           0        0.496735    1.570923    1.868679
     21          7           0       -2.594225   -0.560541    0.007757
     22          6           0       -2.858496    0.893387    0.137798
     23          6           0        2.550525    1.019810    1.289984
     24          1           0        1.784919    2.575121    2.561279
     25          1           0        4.904240   -0.783272    0.515136
     26          6           0        1.462617    2.039899    1.653032
     27          6           0        3.198532   -1.245396   -0.790572
     28         15           0        1.874829   -0.025274   -0.151715
     29          1           0       -3.899531    1.134033   -0.134639
     30          6           0        4.650488   -0.834876   -0.551652
     31          1           0       -2.726794   -2.070197   -1.439731
     32          1           0       -5.128195   -1.751136   -0.808768
     33          1           0        5.304015   -1.599297   -1.004524
     34          6           0       -3.109926   -1.052379   -1.296989
     35          1           0        3.982761    2.533141    1.796522
     36          6           0       -0.219955   -1.697150   -1.481168
     37          6           0        3.815510    1.822442    0.970188
     38          1           0        1.994925   -1.689746   -2.589499
     39          6           0        3.024230   -1.449097   -2.298243
     40          1           0        4.716430    1.207247    0.885978
     41          1           0        3.655417   -2.298458   -2.607928
     42          6           0       -1.910431    1.731579   -0.668397
     43          7           0       -0.655854    1.258858   -0.748594
     44          6           0       -4.619470   -1.050172   -1.486529
     45          1           0        1.329284    2.794060    0.862233
     46          1           0       -2.629047   -0.434063   -2.069657
     47          1           0        4.897524    0.127554   -1.022158
     48          1           0       -5.073343   -0.056744   -1.354119
     49          6           0        1.643769    1.251064   -1.510602
     50          1           0       -4.840315   -1.372385   -2.515072
     51          1           0        3.716601    2.422921    0.052612
     52          6           0        0.309888    1.934457   -1.399449
     53          6           0       -2.250791    2.950899   -1.244854
     54          1           0        3.362000   -0.570786   -2.869539
     55          1           0       -3.273561    3.322578   -1.172749
     56          1           0        1.635778    0.670205   -2.447186
     57          1           0        2.462688    1.981216   -1.587480
     58          6           0        0.033486    3.173702   -1.973238
     59          6           0       -1.259349    3.684923   -1.891467
     60          1           0        0.823019    3.723888   -2.486655
     61          1           0       -1.495880    4.651073   -2.340775
     62          8           0       -0.219792   -2.381236   -2.432438
     63          8           0       -2.271761    1.700054    3.090976
     64          1           0       -1.594868    1.015287    2.855069
     65          1           0       -2.665300    1.343734    3.895925
 ---------------------------------------------------------------------

 SCF Done:  E(UPBE1PBE) =  -1630.04503631     A.U. after   27 cycles

 The electronic state is 3-A.
 Alpha  occ. eigenvalues --  -77.25188 -19.24998 -19.23534 -19.23147 -19.18524
 Alpha  occ. eigenvalues --  -14.42726 -14.42378 -10.30205 -10.28523 -10.28069
 Alpha  occ. eigenvalues --  -10.25098 -10.24969 -10.24832 -10.24785 -10.24641
 Alpha  occ. eigenvalues --  -10.24304 -10.23800 -10.23786 -10.23393 -10.20810
 Alpha  occ. eigenvalues --  -10.20728 -10.20727 -10.20675 -10.20631 -10.20527
 Alpha  occ. eigenvalues --  -10.20334 -10.20283  -6.62564  -4.76241  -4.76165
 Alpha  occ. eigenvalues --   -4.75909  -3.03678  -1.88099  -1.86522  -1.86154
 Alpha  occ. eigenvalues --   -1.14659  -1.11195  -1.01622  -1.00183  -0.96448
 Alpha  occ. eigenvalues --   -0.84852  -0.83427  -0.83033  -0.82501  -0.79893
 Alpha  occ. eigenvalues --   -0.77923  -0.76810  -0.73910  -0.70434  -0.70273
 Alpha  occ. eigenvalues --   -0.69959  -0.69644  -0.69115  -0.66047  -0.65517
 Alpha  occ. eigenvalues --   -0.63089  -0.61792  -0.57866  -0.56230  -0.55931
 Alpha  occ. eigenvalues --   -0.53214  -0.53105  -0.52813  -0.51652  -0.50931
 Alpha  occ. eigenvalues --   -0.50046  -0.48518  -0.47685  -0.47477  -0.46720
 Alpha  occ. eigenvalues --   -0.46080  -0.45668  -0.45202  -0.44967  -0.44388
 Alpha  occ. eigenvalues --   -0.44161  -0.44062  -0.43792  -0.43552  -0.43374
 Alpha  occ. eigenvalues --   -0.43151  -0.42652  -0.42414  -0.41907  -0.41368
 Alpha  occ. eigenvalues --   -0.40954  -0.40027  -0.39705  -0.38888  -0.38684
 Alpha  occ. eigenvalues --   -0.38557  -0.38147  -0.37807  -0.37642  -0.36724
 Alpha  occ. eigenvalues --   -0.36693  -0.36394  -0.36312  -0.35335  -0.34734
 Alpha  occ. eigenvalues --   -0.34447  -0.34346  -0.33962  -0.33423  -0.32874
 Alpha  occ. eigenvalues --   -0.32355  -0.31955  -0.31560  -0.31071  -0.29752
 Alpha  occ. eigenvalues --   -0.27082  -0.26905  -0.26232  -0.24442  -0.23701
 Alpha  occ. eigenvalues --   -0.21284  -0.20926  -0.15834
 Alpha virt. eigenvalues --   -0.03807  -0.01882  -0.00737   0.01033   0.01978
 Alpha virt. eigenvalues --    0.02912   0.03117   0.03175   0.04133   0.06476
 Alpha virt. eigenvalues --    0.07309   0.07477   0.07593   0.07937   0.08050

  Beta  occ. eigenvalues --  -77.25197 -19.23609 -19.23461 -19.21507 -19.18530
  Beta  occ. eigenvalues --  -14.42722 -14.42187 -10.30211 -10.28517 -10.28053
  Beta  occ. eigenvalues --  -10.25092 -10.24971 -10.24818 -10.24791 -10.24638
  Beta  occ. eigenvalues --  -10.24300 -10.23798 -10.23788 -10.23392 -10.20809
  Beta  occ. eigenvalues --  -10.20728 -10.20726 -10.20649 -10.20613 -10.20529
  Beta  occ. eigenvalues --  -10.20325 -10.20267  -6.62576  -4.76246  -4.76172
  Beta  occ. eigenvalues --   -4.75937  -3.01119  -1.85520  -1.84736  -1.81805
  Beta  occ. eigenvalues --   -1.11475  -1.11026  -1.01617  -0.99983  -0.96416
  Beta  occ. eigenvalues --   -0.84844  -0.83347  -0.82997  -0.82490  -0.77984
  Beta  occ. eigenvalues --   -0.76794  -0.75265  -0.73890  -0.70417  -0.70248
  Beta  occ. eigenvalues --   -0.69937  -0.69607  -0.69090  -0.66015  -0.65466
  Beta  occ. eigenvalues --   -0.63003  -0.61749  -0.57827  -0.56083  -0.55780
  Beta  occ. eigenvalues --   -0.53142  -0.52973  -0.52680  -0.51584  -0.50832
  Beta  occ. eigenvalues --   -0.49814  -0.48421  -0.47548  -0.46404  -0.45946
  Beta  occ. eigenvalues --   -0.45684  -0.45408  -0.44967  -0.44521  -0.44001
  Beta  occ. eigenvalues --   -0.43742  -0.43643  -0.43467  -0.43120  -0.42913
  Beta  occ. eigenvalues --   -0.42334  -0.42154  -0.41916  -0.41369  -0.40880
  Beta  occ. eigenvalues --   -0.40016  -0.39686  -0.38801  -0.38620  -0.38579
  Beta  occ. eigenvalues --   -0.38032  -0.37668  -0.37549  -0.37110  -0.36627
  Beta  occ. eigenvalues --   -0.36534  -0.36324  -0.36206  -0.35273  -0.34625
  Beta  occ. eigenvalues --   -0.34154  -0.34125  -0.33387  -0.33146  -0.32472
  Beta  occ. eigenvalues --   -0.32211  -0.31697  -0.31230  -0.30979  -0.29632
  Beta  occ. eigenvalues --   -0.26968  -0.26464  -0.23584  -0.22871  -0.20087
  Beta  occ. eigenvalues --   -0.19718
  Beta virt. eigenvalues --   -0.06741  -0.04561  -0.02088  -0.01829   0.00385
  Beta virt. eigenvalues --    0.01221   0.02800   0.03103   0.03338   0.03499
  Beta virt. eigenvalues --    0.04921   0.06619   0.07357   0.07544   0.07782

 Mulliken charges and spin densities:
               1          2
     1  H    0.120697   0.001480
     2  C   -0.339369   0.003895
     3  H    0.116712   0.000400
     4  H    0.130358   0.006369
     5  H    0.131536  -0.000873
     6  O   -0.337242   0.433537
     7  H    0.121954  -0.000520
     8  O   -0.339641   0.554828
     9  C   -0.108964   0.006974
    10  H    0.104822   0.000470
    11  H    0.116900  -0.000713
    12  C   -0.368063   0.003377
    13  H    0.137806  -0.004146
    14  H    0.121975   0.000400
    15  H    0.123399  -0.001733
    16  C   -0.342523   0.003765
    17  H    0.109591   0.001826
    18  H    0.150001  -0.000212
    19  Ru   0.768554   0.915838
    20  H    0.145605  -0.004503
    21  N   -0.263616  -0.004599
    22  C   -0.132389   0.001716
    23  C    0.006320  -0.002474
    24  H    0.110132   0.000303
    25  H    0.119407   0.000040
    26  C   -0.375351   0.009736
    27  C    0.006464  -0.001196
    28  P    0.046546  -0.021391
    29  H    0.127991  -0.000495
    30  C   -0.334695  -0.000555
    31  H    0.131659  -0.000908
    32  H    0.111047   0.000002
    33  H    0.108114  -0.000038
    34  C   -0.124613  -0.000578
    35  H    0.108445  -0.000392
    36  C   -0.189121   0.016967
    37  C   -0.333677  -0.000546
    38  H    0.137965   0.000541
    39  C   -0.357611  -0.000077
    40  H    0.119802   0.000212
    41  H    0.106995  -0.000110
    42  C    0.131456   0.007491
    43  N   -0.218552   0.047652
    44  C   -0.321232   0.000207
    45  H    0.120367  -0.000246
    46  H    0.144176   0.000123
    47  H    0.112504   0.000135
    48  H    0.109928   0.000074
    49  C   -0.223026  -0.000092
    50  H    0.117444   0.000158
    51  H    0.116855   0.000147
    52  C    0.062242   0.006884
    53  C   -0.170878  -0.001029
    54  H    0.111263  -0.000043
    55  H    0.160783   0.001713
    56  H    0.162039  -0.000210
    57  H    0.146373  -0.000686
    58  C   -0.145520  -0.001878
    59  C   -0.135689   0.008542
    60  H    0.161940   0.001164
    61  H    0.161398  -0.000564
    62  O   -0.315837   0.017401
    63  O   -0.574954  -0.001037
    64  H    0.323533  -0.002537
    65  H    0.269462   0.000017
 Sum of Mulliken charges =  -0.00000   2.00000

 Dipole moment (field-independent basis, Debye):
    X=             -0.1698    Y=              5.9309    Z=             -7.3123  Tot=              9.4166
 Quadrupole moment (field-independent basis, Debye-Ang):
   XX=           -156.4369   YY=           -192.3909   ZZ=           -213.7507
   XY=              4.0974   XZ=             -0.8914   YZ=            -15.6604

 Normal termination of Gaussian 16 at Thu Jul 23 00:25:25 2020.
