 Gaussian 16, Revision A.03,
 Gaussian 16:  ES64L-G16RevA.03 25-Dec-2016

 -------------------------------------------------------------------
 # genecp pbe1pbe EmpiricalDispersion=GD3BJ scrf=(SMD,solvent=water)
 -------------------------------------------------------------------

 -------------------
 Title card Required
 -------------------
 Symbolic Z-matrix:
 Charge =  0 Multiplicity = 3

                         Standard orientation:
 ---------------------------------------------------------------------
 Center     Atomic      Atomic             Coordinates (Angstroms)
 Number     Number       Type             X           Y           Z
 ---------------------------------------------------------------------
      1          1           0       -3.429762   -3.707904    1.271135
      2          6           0       -3.011617   -3.150767    0.420139
      3          1           0       -3.553663   -3.474194   -0.481131
      4          1           0       -1.958141   -3.440712    0.317727
      5          1           0        1.362359   -0.703333    2.506744
      6          8           0       -1.121243    0.060490    2.858203
      7          1           0        4.360697   -1.596756    0.379658
      8          8           0       -0.784218   -0.273673    4.029972
      9          6           0       -3.158896   -1.670691    0.695083
     10          1           0        2.776740   -0.022938    3.349180
     11          1           0       -4.233704   -1.409855    0.754874
     12          6           0        2.410073   -0.395407    2.378195
     13          1           0        2.952421   -2.624721    0.002669
     14          1           0        3.005259   -1.279897    2.112701
     15          1           0       -2.703942   -1.414907    1.663016
     16          6           0        3.734228   -1.987651   -0.434396
     17          1           0        4.374540   -2.627735   -1.064220
     18          1           0       -2.783994    0.733676    1.121174
     19         44           0       -0.272856   -0.709873   -0.186688
     20          1           0        0.541827    1.533467    1.753738
     21          7           0       -2.503326   -0.779379   -0.295792
     22          6           0       -2.905315    0.602504    0.035644
     23          6           0        2.526521    0.725115    1.339920
     24          1           0        1.839375    2.158630    2.797417
     25          1           0        4.863977    0.484159   -1.052781
     26          6           0        1.591282    1.862847    1.764754
     27          6           0        3.145138   -0.869349   -1.296558
     28         15           0        1.830924    0.068444   -0.299646
     29          1           0       -3.967182    0.789472   -0.197836
     30          6           0        4.267669    0.014026   -1.844112
     31          1           0       -2.398521   -2.092331   -1.912194
     32          1           0       -4.898941   -1.841736   -1.469531
     33          1           0        4.950917   -0.609154   -2.445467
     34          6           0       -2.845327   -1.111458   -1.700800
     35          1           0        4.216575    1.714674    2.236294
     36          6           0        0.237742   -2.396229    0.306907
     37          6           0        3.956394    1.252640    1.269061
     38          1           0        1.591739   -2.167889   -2.123447
     39          6           0        2.394084   -1.503040   -2.472928
     40          1           0        4.689126    0.454690    1.083690
     41          1           0        3.103508   -2.087239   -3.082791
     42          6           0       -2.027877    1.630378   -0.604879
     43          7           0       -0.744271    1.257951   -0.753030
     44          6           0       -4.324372   -1.115072   -2.062271
     45          1           0        1.701453    2.755166    1.128136
     46          1           0       -2.305718   -0.389119   -2.332642
     47          1           0        3.890541    0.806873   -2.507355
     48          1           0       -4.794484   -0.127968   -1.941993
     49          6           0        1.579996    1.611136   -1.340693
     50          1           0       -4.429515   -1.396633   -3.120629
     51          1           0        4.081589    2.026268    0.494929
     52          6           0        0.183047    2.134407   -1.195580
     53          6           0       -2.452355    2.912789   -0.929808
     54          1           0        1.936453   -0.747424   -3.131340
     55          1           0       -3.496457    3.191531   -0.790771
     56          1           0        1.719708    1.286591   -2.385215
     57          1           0        2.323798    2.399835   -1.150678
     58          6           0       -0.178607    3.442052   -1.508272
     59          6           0       -1.510555    3.830232   -1.382280
     60          1           0        0.580024    4.144220   -1.855653
     61          1           0       -1.810196    4.850281   -1.629483
     62          8           0        0.623566   -3.455964    0.610940
     63          8           0       -1.934517    2.614823    2.286741
     64          1           0       -1.671118    1.752898    2.673798
     65          1           0       -1.088515    3.061600    2.169406
 ---------------------------------------------------------------------

 SCF Done:  E(UPBE1PBE) =  -1630.05981581     A.U. after   32 cycles

 The electronic state is 3-A.
 Alpha  occ. eigenvalues --  -77.24975 -19.24187 -19.21504 -19.20452 -19.18366
 Alpha  occ. eigenvalues --  -14.42989 -14.42749 -10.30451 -10.29055 -10.28588
 Alpha  occ. eigenvalues --  -10.25693 -10.25284 -10.25005 -10.24895 -10.24758
 Alpha  occ. eigenvalues --  -10.24661 -10.24079 -10.24024 -10.23656 -10.20974
 Alpha  occ. eigenvalues --  -10.20902 -10.20811 -10.20797 -10.20777 -10.20773
 Alpha  occ. eigenvalues --  -10.20670 -10.20461  -6.62432  -4.76122  -4.76012
 Alpha  occ. eigenvalues --   -4.75770  -3.03693  -1.88053  -1.86585  -1.86490
 Alpha  occ. eigenvalues --   -1.15953  -1.11760  -1.01629  -1.00676  -0.96908
 Alpha  occ. eigenvalues --   -0.85116  -0.83871  -0.83346  -0.82652  -0.78130
 Alpha  occ. eigenvalues --   -0.77212  -0.75323  -0.74216  -0.70683  -0.70498
 Alpha  occ. eigenvalues --   -0.70099  -0.69583  -0.69500  -0.66397  -0.65858
 Alpha  occ. eigenvalues --   -0.63316  -0.62056  -0.58026  -0.56479  -0.56119
 Alpha  occ. eigenvalues --   -0.53380  -0.53135  -0.52377  -0.52052  -0.51207
 Alpha  occ. eigenvalues --   -0.50062  -0.48516  -0.47814  -0.46694  -0.46271
 Alpha  occ. eigenvalues --   -0.46121  -0.45686  -0.45468  -0.45237  -0.44837
 Alpha  occ. eigenvalues --   -0.44702  -0.43955  -0.43839  -0.43695  -0.43294
 Alpha  occ. eigenvalues --   -0.42942  -0.42343  -0.41875  -0.41780  -0.41402
 Alpha  occ. eigenvalues --   -0.41304  -0.39959  -0.39545  -0.39189  -0.38922
 Alpha  occ. eigenvalues --   -0.38857  -0.38489  -0.38278  -0.38052  -0.36936
 Alpha  occ. eigenvalues --   -0.36685  -0.36620  -0.36258  -0.35338  -0.34861
 Alpha  occ. eigenvalues --   -0.34789  -0.34607  -0.33608  -0.33207  -0.32942
 Alpha  occ. eigenvalues --   -0.32691  -0.32375  -0.31818  -0.31391  -0.29675
 Alpha  occ. eigenvalues --   -0.27380  -0.26809  -0.24217  -0.23403  -0.22533
 Alpha  occ. eigenvalues --   -0.21939  -0.21589  -0.18074
 Alpha virt. eigenvalues --   -0.05040  -0.02214   0.00270   0.00663   0.01305
 Alpha virt. eigenvalues --    0.02976   0.03171   0.03333   0.04444   0.05918
 Alpha virt. eigenvalues --    0.07234   0.07332   0.07761   0.07916   0.08124

  Beta  occ. eigenvalues --  -77.24987 -19.24253 -19.19964 -19.18854 -19.18363
  Beta  occ. eigenvalues --  -14.42994 -14.42763 -10.30545 -10.29057 -10.28590
  Beta  occ. eigenvalues --  -10.25691 -10.25287 -10.25000 -10.24899 -10.24752
  Beta  occ. eigenvalues --  -10.24668 -10.24077 -10.24022 -10.23659 -10.20968
  Beta  occ. eigenvalues --  -10.20892 -10.20812 -10.20796 -10.20778 -10.20773
  Beta  occ. eigenvalues --  -10.20660 -10.20458  -6.62447  -4.76132  -4.76023
  Beta  occ. eigenvalues --   -4.75803  -3.00507  -1.85446  -1.83919  -1.80799
  Beta  occ. eigenvalues --   -1.12764  -1.11869  -1.01616  -1.00679  -0.96907
  Beta  occ. eigenvalues --   -0.85124  -0.83873  -0.83348  -0.82652  -0.78111
  Beta  occ. eigenvalues --   -0.77204  -0.74221  -0.70757  -0.70572  -0.70440
  Beta  occ. eigenvalues --   -0.70055  -0.69569  -0.69475  -0.66380  -0.65862
  Beta  occ. eigenvalues --   -0.63314  -0.62065  -0.58000  -0.56576  -0.56120
  Beta  occ. eigenvalues --   -0.53375  -0.53121  -0.52247  -0.52021  -0.51170
  Beta  occ. eigenvalues --   -0.50030  -0.48496  -0.47801  -0.46565  -0.46030
  Beta  occ. eigenvalues --   -0.45868  -0.45665  -0.45385  -0.44865  -0.44556
  Beta  occ. eigenvalues --   -0.44012  -0.43761  -0.43326  -0.43063  -0.42591
  Beta  occ. eigenvalues --   -0.42286  -0.41788  -0.41580  -0.41283  -0.40734
  Beta  occ. eigenvalues --   -0.39951  -0.39498  -0.39211  -0.38845  -0.38646
  Beta  occ. eigenvalues --   -0.38469  -0.38264  -0.38065  -0.36936  -0.36722
  Beta  occ. eigenvalues --   -0.36585  -0.36231  -0.36116  -0.35315  -0.34838
  Beta  occ. eigenvalues --   -0.34551  -0.34343  -0.33528  -0.33094  -0.32913
  Beta  occ. eigenvalues --   -0.32522  -0.32118  -0.31542  -0.31367  -0.29614
  Beta  occ. eigenvalues --   -0.27154  -0.26760  -0.23213  -0.21925  -0.20444
  Beta  occ. eigenvalues --   -0.16631
  Beta virt. eigenvalues --   -0.05025  -0.04661  -0.03031  -0.02114   0.00898
  Beta virt. eigenvalues --    0.01208   0.01701   0.03054   0.03262   0.03445
  Beta virt. eigenvalues --    0.04817   0.05939   0.07276   0.07433   0.07807

 Mulliken charges and spin densities:
               1          2
     1  H    0.121303  -0.000010
     2  C   -0.341872   0.000245
     3  H    0.113294  -0.000037
     4  H    0.129309   0.000563
     5  H    0.105399  -0.005542
     6  O   -0.339248   0.493077
     7  H    0.121211  -0.000014
     8  O   -0.409255   0.540347
     9  C   -0.132140   0.003824
    10  H    0.109190   0.000602
    11  H    0.119212   0.000721
    12  C   -0.339392  -0.000298
    13  H    0.128151   0.000055
    14  H    0.122186  -0.000237
    15  H    0.140561  -0.000124
    16  C   -0.351056   0.000064
    17  H    0.107737  -0.000011
    18  H    0.153271   0.003360
    19  Ru   0.855787   1.116458
    20  H    0.091947   0.000149
    21  N   -0.282809  -0.004077
    22  C   -0.072291  -0.001120
    23  C    0.014279  -0.001879
    24  H    0.113256   0.000061
    25  H    0.121310   0.000051
    26  C   -0.337926   0.000993
    27  C   -0.013985  -0.002018
    28  P    0.037008  -0.040389
    29  H    0.132677   0.000774
    30  C   -0.328808  -0.000376
    31  H    0.134396   0.000714
    32  H    0.113408   0.000073
    33  H    0.109774  -0.000196
    34  C   -0.118342   0.002904
    35  H    0.108899  -0.000237
    36  C   -0.198463  -0.069793
    37  C   -0.336959  -0.000287
    38  H    0.126979  -0.003309
    39  C   -0.339525   0.000500
    40  H    0.118983   0.000119
    41  H    0.113120   0.001518
    42  C    0.104742   0.000092
    43  N   -0.230098  -0.009543
    44  C   -0.316834   0.002488
    45  H    0.118201  -0.000261
    46  H    0.141961   0.000131
    47  H    0.114081   0.000037
    48  H    0.112643   0.000042
    49  C   -0.252079  -0.005369
    50  H    0.119634  -0.000188
    51  H    0.116801   0.000064
    52  C    0.048888  -0.001617
    53  C   -0.164797   0.001188
    54  H    0.120842   0.000024
    55  H    0.163209  -0.000142
    56  H    0.158922   0.000190
    57  H    0.147473  -0.000045
    58  C   -0.128483   0.001033
    59  C   -0.123251  -0.002120
    60  H    0.163265  -0.000120
    61  H    0.164409   0.000114
    62  O   -0.289093  -0.020926
    63  O   -0.582424   0.001460
    64  H    0.288197  -0.003678
    65  H    0.283211  -0.000076
 Sum of Mulliken charges =  -0.00000   2.00000

 Dipole moment (field-independent basis, Debye):
    X=              2.3488    Y=              6.6994    Z=            -18.1008  Tot=             19.4432
 Quadrupole moment (field-independent basis, Debye-Ang):
   XX=           -162.5338   YY=           -187.9704   ZZ=           -234.7123
   XY=             12.5984   XZ=             16.8203   YZ=             -3.6050

 Normal termination of Gaussian 16 at Thu Jul 23 00:42:23 2020.
