 Gaussian 16, Revision A.03,
 Gaussian 16:  ES64L-G16RevA.03 25-Dec-2016

 -------------------------------------------------------------------
 # genecp pbe1pbe EmpiricalDispersion=GD3BJ scrf=(SMD,solvent=water)
 -------------------------------------------------------------------

 -------------------
 Title card Required
 -------------------
 Symbolic Z-matrix:
 Charge =  0 Multiplicity = 3

                         Standard orientation:
 ---------------------------------------------------------------------
 Center     Atomic      Atomic             Coordinates (Angstroms)
 Number     Number       Type             X           Y           Z
 ---------------------------------------------------------------------
      1          1           0       -3.171888    3.905987    0.893937
      2          6           0       -2.906925    2.888407    1.216803
      3          1           0       -3.530633    2.648877    2.091138
      4          1           0       -1.853851    2.892160    1.528083
      5          1           0        1.822758    1.517713   -1.598711
      6          8           0        0.801582    4.356088   -1.820765
      7          1           0        4.246730    0.649759    1.140499
      8          8           0        1.975548    4.504370   -1.654955
      9          6           0       -3.127445    1.935281    0.063279
     10          1           0        3.380156    1.197103   -2.409541
     11          1           0       -4.203960    1.905098   -0.198435
     12          6           0        2.801307    1.033456   -1.484690
     13          1           0        2.809779    1.481318    1.794701
     14          1           0        3.333747    1.527467   -0.660848
     15          1           0       -2.585893    2.278368   -0.829748
     16          6           0        3.464934    0.605892    1.912501
     17          1           0        3.965783    0.690193    2.891846
     18          1           0       -2.692530    0.323028   -1.758998
     19         44           0       -0.418934    0.283967    0.400871
     20          1           0        0.779422   -0.547476   -2.443685
     21          7           0       -2.646494    0.554633    0.303074
     22          6           0       -3.021797   -0.251823   -0.876917
     23          6           0        2.618917   -0.469912   -1.263193
     24          1           0        2.279858   -0.768857   -3.373053
     25          1           0        4.391084   -1.916985    1.194681
     26          6           0        1.776141   -1.012640   -2.422560
     27          6           0        2.676932   -0.704469    1.861714
     28         15           0        1.571716   -0.707722    0.311518
     29          1           0       -4.115108   -0.392293   -0.951813
     30          6           0        3.629636   -1.894692    1.983468
     31          1           0       -2.733620    0.520736    2.385271
     32          1           0       -5.147199    0.929453    1.686187
     33          1           0        4.159167   -1.831474    2.949573
     34          6           0       -3.183170   -0.037238    1.552883
     35          1           0        4.436824   -1.076373   -2.251222
     36          6           0        0.280020    1.907611    0.836507
     37          6           0        3.971635   -1.175672   -1.255564
     38          1           0        0.984326    0.099652    2.980607
     39          6           0        1.702510   -0.730841    3.044672
     40          1           0        4.668331   -0.737707   -0.527032
     41          1           0        2.271537   -0.656726    3.987177
     42          6           0       -2.312642   -1.570476   -0.904115
     43          7           0       -1.071296   -1.545297   -0.378971
     44          6           0       -4.699090   -0.075078    1.694019
     45          1           0        1.661689   -2.106949   -2.385005
     46          1           0       -2.772259   -1.055448    1.619685
     47          1           0        3.097481   -2.858058    1.973507
     48          1           0       -5.184850   -0.671788    0.907543
     49          6           0        1.062735   -2.516413    0.212042
     50          1           0       -4.953763   -0.541129    2.657632
     51          1           0        3.882169   -2.253017   -1.045074
     52          6           0       -0.285436   -2.644578   -0.426775
     53          6           0       -2.828166   -2.715306   -1.498536
     54          1           0        1.121076   -1.666134    3.081101
     55          1           0       -3.836896   -2.707499   -1.913095
     56          1           0        0.983085   -2.854980    1.258287
     57          1           0        1.802818   -3.166215   -0.279517
     58          6           0       -0.740361   -3.812573   -1.033866
     59          6           0       -2.024664   -3.850944   -1.570794
     60          1           0       -0.089650   -4.686814   -1.075130
     61          1           0       -2.397184   -4.761733   -2.042835
     62          8           0        0.788218    2.942696    1.064238
     63          8           0       -0.822262    1.537875   -2.456374
     64          1           0       -0.480357    2.438275   -2.375831
     65          1           0       -0.521411    1.132217   -1.584108
 ---------------------------------------------------------------------

 SCF Done:  E(UPBE1PBE) =  -1630.03542071     A.U. after   23 cycles

 The electronic state is 3-A.
 Alpha  occ. eigenvalues --  -77.23756 -19.36147 -19.36121 -19.21598 -19.18310
 Alpha  occ. eigenvalues --  -14.42255 -14.42098 -10.28439 -10.28088 -10.27800
 Alpha  occ. eigenvalues --  -10.25469 -10.24921 -10.24608 -10.24414 -10.24101
 Alpha  occ. eigenvalues --  -10.23933 -10.23814 -10.23728 -10.22921 -10.20805
 Alpha  occ. eigenvalues --  -10.20545 -10.20533 -10.20502 -10.20460 -10.20365
 Alpha  occ. eigenvalues --  -10.20350 -10.20135  -6.61139  -4.74849  -4.74728
 Alpha  occ. eigenvalues --   -4.74458  -2.97632  -1.82929  -1.81409  -1.78330
 Alpha  occ. eigenvalues --   -1.34272  -1.09218  -1.00887  -1.00026  -0.96361
 Alpha  occ. eigenvalues --   -0.85897  -0.84499  -0.83469  -0.82828  -0.82159
 Alpha  occ. eigenvalues --   -0.77820  -0.76793  -0.73696  -0.70237  -0.70188
 Alpha  occ. eigenvalues --   -0.69705  -0.69209  -0.69139  -0.66089  -0.65236
 Alpha  occ. eigenvalues --   -0.62823  -0.61336  -0.58356  -0.58325  -0.57639
 Alpha  occ. eigenvalues --   -0.56629  -0.55549  -0.54595  -0.52890  -0.52607
 Alpha  occ. eigenvalues --   -0.52095  -0.51132  -0.50214  -0.49619  -0.48016
 Alpha  occ. eigenvalues --   -0.47365  -0.45912  -0.45351  -0.45181  -0.44988
 Alpha  occ. eigenvalues --   -0.44541  -0.44168  -0.43752  -0.43331  -0.42849
 Alpha  occ. eigenvalues --   -0.42085  -0.41901  -0.41766  -0.41214  -0.41011
 Alpha  occ. eigenvalues --   -0.40354  -0.39929  -0.39578  -0.39123  -0.38911
 Alpha  occ. eigenvalues --   -0.38507  -0.38087  -0.37934  -0.37749  -0.36652
 Alpha  occ. eigenvalues --   -0.36284  -0.36211  -0.35822  -0.34912  -0.34792
 Alpha  occ. eigenvalues --   -0.34534  -0.34229  -0.33259  -0.32888  -0.32200
 Alpha  occ. eigenvalues --   -0.31998  -0.31602  -0.31554  -0.31494  -0.30926
 Alpha  occ. eigenvalues --   -0.30464  -0.28837  -0.26686  -0.26010  -0.21275
 Alpha  occ. eigenvalues --   -0.19194  -0.17649  -0.15536
 Alpha virt. eigenvalues --   -0.04688  -0.01860   0.00910   0.00951   0.02485
 Alpha virt. eigenvalues --    0.03112   0.03692   0.04273   0.06229   0.06571
 Alpha virt. eigenvalues --    0.07654   0.07739   0.07931   0.08110   0.08964

  Beta  occ. eigenvalues --  -77.23756 -19.32981 -19.32929 -19.21600 -19.18305
  Beta  occ. eigenvalues --  -14.42255 -14.42098 -10.28439 -10.28088 -10.27801
  Beta  occ. eigenvalues --  -10.25469 -10.24921 -10.24608 -10.24414 -10.24101
  Beta  occ. eigenvalues --  -10.23933 -10.23813 -10.23728 -10.22921 -10.20805
  Beta  occ. eigenvalues --  -10.20545 -10.20533 -10.20502 -10.20460 -10.20365
  Beta  occ. eigenvalues --  -10.20350 -10.20136  -6.61139  -4.74849  -4.74728
  Beta  occ. eigenvalues --   -4.74458  -2.97615  -1.82916  -1.81393  -1.78302
  Beta  occ. eigenvalues --   -1.28339  -1.09219  -1.00876  -1.00026  -0.96361
  Beta  occ. eigenvalues --   -0.84499  -0.83469  -0.82829  -0.82159  -0.77820
  Beta  occ. eigenvalues --   -0.76793  -0.76283  -0.73696  -0.70237  -0.70188
  Beta  occ. eigenvalues --   -0.69705  -0.69208  -0.69139  -0.66089  -0.65236
  Beta  occ. eigenvalues --   -0.62823  -0.61335  -0.57639  -0.55563  -0.54628
  Beta  occ. eigenvalues --   -0.52901  -0.52786  -0.52561  -0.52033  -0.51123
  Beta  occ. eigenvalues --   -0.50188  -0.49622  -0.48043  -0.47419  -0.47206
  Beta  occ. eigenvalues --   -0.47101  -0.45909  -0.45349  -0.45150  -0.44988
  Beta  occ. eigenvalues --   -0.44533  -0.44152  -0.43751  -0.43329  -0.42823
  Beta  occ. eigenvalues --   -0.42074  -0.41899  -0.41699  -0.41208  -0.41009
  Beta  occ. eigenvalues --   -0.40353  -0.39894  -0.39577  -0.39120  -0.38909
  Beta  occ. eigenvalues --   -0.38506  -0.38087  -0.37933  -0.37748  -0.36651
  Beta  occ. eigenvalues --   -0.36283  -0.36209  -0.35821  -0.34910  -0.34788
  Beta  occ. eigenvalues --   -0.34534  -0.34224  -0.33250  -0.32878  -0.32200
  Beta  occ. eigenvalues --   -0.31983  -0.31494  -0.30941  -0.30470  -0.28837
  Beta  occ. eigenvalues --   -0.26686  -0.26009  -0.21270  -0.19184  -0.17641
  Beta  occ. eigenvalues --   -0.15496
  Beta virt. eigenvalues --   -0.09275  -0.09115  -0.04681  -0.01860   0.00939
  Beta virt. eigenvalues --    0.00996   0.02510   0.03145   0.03755   0.04294
  Beta virt. eigenvalues --    0.06250   0.06581   0.07670   0.07746   0.07941

 Mulliken charges and spin densities:
               1          2
     1  H    0.119605   0.000002
     2  C   -0.342834   0.000014
     3  H    0.113213   0.000005
     4  H    0.132653  -0.000081
     5  H    0.109222  -0.001934
     6  O    0.009541   0.992513
     7  H    0.118585   0.000003
     8  O    0.014982   1.005136
     9  C   -0.125274   0.000060
    10  H    0.106507   0.000161
    11  H    0.114463  -0.000022
    12  C   -0.329847   0.000074
    13  H    0.127102  -0.000019
    14  H    0.119593   0.000326
    15  H    0.125862  -0.000012
    16  C   -0.355155   0.000007
    17  H    0.104877   0.000008
    18  H    0.165456   0.000058
    19  Ru   0.161018   0.003877
    20  H    0.136557   0.000079
    21  N   -0.256703   0.000011
    22  C   -0.091722  -0.000014
    23  C    0.012759   0.000035
    24  H    0.110105  -0.000009
    25  H    0.118731   0.000000
    26  C   -0.355394   0.000019
    27  C   -0.005659  -0.000010
    28  P    0.077492  -0.000122
    29  H    0.126127  -0.000005
    30  C   -0.334530   0.000002
    31  H    0.141995  -0.000034
    32  H    0.112096   0.000000
    33  H    0.106549  -0.000000
    34  C   -0.123588  -0.000109
    35  H    0.105652   0.000000
    36  C   -0.231764  -0.001389
    37  C   -0.339799  -0.000044
    38  H    0.123015   0.000139
    39  C   -0.350799   0.000031
    40  H    0.117031  -0.000004
    41  H    0.107629   0.000029
    42  C    0.110587   0.000019
    43  N   -0.218272  -0.000057
    44  C   -0.321813   0.000024
    45  H    0.114689   0.000021
    46  H    0.142286  -0.000084
    47  H    0.112594   0.000001
    48  H    0.111853   0.000003
    49  C   -0.271229  -0.000026
    50  H    0.118231  -0.000002
    51  H    0.114303  -0.000003
    52  C    0.045171  -0.000174
    53  C   -0.169523   0.000060
    54  H    0.119731   0.000024
    55  H    0.160514  -0.000004
    56  H    0.155125   0.000024
    57  H    0.141275   0.000003
    58  C   -0.135246   0.000057
    59  C   -0.133732  -0.000133
    60  H    0.160896  -0.000003
    61  H    0.162331   0.000007
    62  O   -0.363734  -0.000219
    63  O   -0.571419   0.001753
    64  H    0.264959  -0.000604
    65  H    0.355074   0.000528
 Sum of Mulliken charges =  -0.00000   2.00000

 Dipole moment (field-independent basis, Debye):
    X=             -3.9004    Y=            -10.1747    Z=             -0.0949  Tot=             10.8971
 Quadrupole moment (field-independent basis, Debye-Ang):
   XX=           -162.6929   YY=           -181.8772   ZZ=           -201.9704
   XY=             -3.2342   XZ=             -1.1413   YZ=              0.9849

 Normal termination of Gaussian 16 at Thu Jul 23 00:08:54 2020.
