 Gaussian 16, Revision A.03,
 Gaussian 16:  ES64L-G16RevA.03 25-Dec-2016

 -------------------------------------------------------------------
 # genecp pbe1pbe EmpiricalDispersion=GD3BJ scrf=(SMD,solvent=water)
 -------------------------------------------------------------------

 -------------------
 Title card Required
 -------------------
 Symbolic Z-matrix:
 Charge =  0 Multiplicity = 3

                         Standard orientation:
 ---------------------------------------------------------------------
 Center     Atomic      Atomic             Coordinates (Angstroms)
 Number     Number       Type             X           Y           Z
 ---------------------------------------------------------------------
      1          1           0       -2.941045    4.044996    1.149298
      2          6           0       -2.762080    2.987775    1.394551
      3          1           0       -3.433262    2.725699    2.226233
      4          1           0       -1.723605    2.887623    1.737396
      5          1           0        1.975115    1.508830   -1.362067
      6          8           0        1.562765    4.330367   -1.691036
      7          1           0        4.211300    0.242978    1.365896
      8          8           0        2.715470    4.461957   -1.979038
      9          6           0       -3.007323    2.149717    0.159517
     10          1           0        3.525605    1.129838   -2.160111
     11          1           0       -4.072868    2.220374   -0.136935
     12          6           0        2.907939    0.938224   -1.266242
     13          1           0        2.809818    1.126172    2.029486
     14          1           0        3.452860    1.318177   -0.391593
     15          1           0       -2.409774    2.522558   -0.684645
     16          6           0        3.396144    0.198516    2.102577
     17          1           0        3.859439    0.171484    3.103412
     18          1           0       -2.620618    0.660286   -1.775294
     19         44           0       -0.438366    0.281803    0.444036
     20          1           0        0.808867   -0.393364   -2.417135
     21          7           0       -2.635182    0.722431    0.299392
     22          6           0       -3.021768    0.042447   -0.954244
     23          6           0        2.602068   -0.558572   -1.176389
     24          1           0        2.322618   -0.658894   -3.313658
     25          1           0        4.169547   -2.322229    1.214919
     26          6           0        1.765217   -0.937046   -2.403413
     27          6           0        2.520561   -1.042521    1.919456
     28         15           0        1.479695   -0.842494    0.337915
     29          1           0       -4.118710   -0.010931   -1.075282
     30          6           0        3.381269   -2.305347    1.977071
     31          1           0       -2.801237    0.526577    2.367899
     32          1           0       -5.151044    1.171851    1.632143
     33          1           0        3.875693   -2.356726    2.962307
     34          6           0       -3.259174    0.073451    1.478328
     35          1           0        4.405002   -1.225901   -2.152762
     36          6           0        0.359956    1.821093    1.001018
     37          6           0        3.895831   -1.367395   -1.184101
     38          1           0        0.845985   -0.204882    3.040091
     39          6           0        1.499948   -1.089042    3.062140
     40          1           0        4.595353   -1.045100   -0.400009
     41          1           0        2.034147   -1.130992    4.026755
     42          6           0       -2.407096   -1.318447   -1.067119
     43          7           0       -1.187866   -1.426364   -0.501584
     44          6           0       -4.777984    0.139006    1.569128
     45          1           0        1.564884   -2.018056   -2.460774
     46          1           0       -2.926580   -0.975105    1.472297
     47          1           0        2.783115   -3.223214    1.871773
     48          1           0       -5.276515   -0.352922    0.720582
     49          6           0        0.849135   -2.595476    0.073636
     50          1           0       -5.101386   -0.383625    2.481752
     51          1           0        3.716907   -2.447687   -1.066080
     52          6           0       -0.480096   -2.573111   -0.615599
     53          6           0       -2.978730   -2.370737   -1.770938
     54          1           0        0.852448   -1.978637    3.002665
     55          1           0       -3.967757   -2.255474   -2.215939
     56          1           0        0.707720   -3.010883    1.085106
     57          1           0        1.559663   -3.255542   -0.447024
     58          6           0       -0.992612   -3.651759   -1.332049
     59          6           0       -2.255120   -3.552827   -1.911447
     60          1           0       -0.403729   -4.565012   -1.425064
     61          1           0       -2.672468   -4.392827   -2.469395
     62          8           0        0.932733    2.804229    1.295067
     63          8           0       -0.637228    1.807601   -2.306450
     64          1           0       -0.201460    2.654840   -2.143861
     65          1           0       -0.406450    1.300425   -1.466975
 ---------------------------------------------------------------------

 SCF Done:  E(UPBE1PBE) =  -1630.03517197     A.U. after   22 cycles

 The electronic state is 3-A.
 Alpha  occ. eigenvalues --  -77.23748 -19.36127 -19.36082 -19.21621 -19.18321
 Alpha  occ. eigenvalues --  -14.42245 -14.42103 -10.28423 -10.28075 -10.27805
 Alpha  occ. eigenvalues --  -10.25491 -10.24906 -10.24610 -10.24407 -10.24088
 Alpha  occ. eigenvalues --  -10.23935 -10.23809 -10.23721 -10.22917 -10.20803
 Alpha  occ. eigenvalues --  -10.20542 -10.20535 -10.20512 -10.20459 -10.20364
 Alpha  occ. eigenvalues --  -10.20346 -10.20137  -6.61131  -4.74841  -4.74720
 Alpha  occ. eigenvalues --   -4.74449  -2.97625  -1.82922  -1.81399  -1.78319
 Alpha  occ. eigenvalues --   -1.34209  -1.09243  -1.00889  -1.00012  -0.96353
 Alpha  occ. eigenvalues --   -0.85874  -0.84494  -0.83458  -0.82821  -0.82158
 Alpha  occ. eigenvalues --   -0.77815  -0.76792  -0.73690  -0.70233  -0.70189
 Alpha  occ. eigenvalues --   -0.69704  -0.69209  -0.69140  -0.66082  -0.65229
 Alpha  occ. eigenvalues --   -0.62816  -0.61331  -0.58291  -0.58265  -0.57636
 Alpha  occ. eigenvalues --   -0.56559  -0.55542  -0.54616  -0.52886  -0.52611
 Alpha  occ. eigenvalues --   -0.52092  -0.51136  -0.50216  -0.49616  -0.48013
 Alpha  occ. eigenvalues --   -0.47363  -0.45906  -0.45349  -0.45185  -0.44982
 Alpha  occ. eigenvalues --   -0.44538  -0.44168  -0.43750  -0.43325  -0.42863
 Alpha  occ. eigenvalues --   -0.42097  -0.41904  -0.41816  -0.41213  -0.41010
 Alpha  occ. eigenvalues --   -0.40343  -0.39894  -0.39583  -0.39118  -0.38897
 Alpha  occ. eigenvalues --   -0.38501  -0.38092  -0.37931  -0.37754  -0.36662
 Alpha  occ. eigenvalues --   -0.36290  -0.36200  -0.35821  -0.34913  -0.34785
 Alpha  occ. eigenvalues --   -0.34534  -0.34232  -0.33260  -0.32885  -0.32227
 Alpha  occ. eigenvalues --   -0.31994  -0.31588  -0.31551  -0.31486  -0.30933
 Alpha  occ. eigenvalues --   -0.30474  -0.28829  -0.26686  -0.25999  -0.21264
 Alpha  occ. eigenvalues --   -0.19160  -0.17626  -0.15509
 Alpha virt. eigenvalues --   -0.04680  -0.01854   0.00890   0.00937   0.02458
 Alpha virt. eigenvalues --    0.03131   0.03667   0.04294   0.06215   0.06572
 Alpha virt. eigenvalues --    0.07635   0.07729   0.07936   0.08102   0.08964

  Beta  occ. eigenvalues --  -77.23748 -19.32956 -19.32890 -19.21619 -19.18317
  Beta  occ. eigenvalues --  -14.42245 -14.42103 -10.28424 -10.28075 -10.27805
  Beta  occ. eigenvalues --  -10.25491 -10.24906 -10.24610 -10.24407 -10.24088
  Beta  occ. eigenvalues --  -10.23935 -10.23809 -10.23721 -10.22917 -10.20803
  Beta  occ. eigenvalues --  -10.20542 -10.20535 -10.20512 -10.20459 -10.20364
  Beta  occ. eigenvalues --  -10.20346 -10.20137  -6.61131  -4.74841  -4.74720
  Beta  occ. eigenvalues --   -4.74449  -2.97616  -1.82914  -1.81391  -1.78304
  Beta  occ. eigenvalues --   -1.28268  -1.09239  -1.00880  -1.00012  -0.96353
  Beta  occ. eigenvalues --   -0.84494  -0.83458  -0.82821  -0.82158  -0.77814
  Beta  occ. eigenvalues --   -0.76792  -0.76251  -0.73690  -0.70232  -0.70189
  Beta  occ. eigenvalues --   -0.69704  -0.69208  -0.69139  -0.66082  -0.65229
  Beta  occ. eigenvalues --   -0.62816  -0.61329  -0.57636  -0.55562  -0.54624
  Beta  occ. eigenvalues --   -0.52895  -0.52715  -0.52530  -0.52038  -0.51127
  Beta  occ. eigenvalues --   -0.50196  -0.49618  -0.48035  -0.47402  -0.47078
  Beta  occ. eigenvalues --   -0.47058  -0.45901  -0.45347  -0.45161  -0.44982
  Beta  occ. eigenvalues --   -0.44533  -0.44157  -0.43749  -0.43321  -0.42845
  Beta  occ. eigenvalues --   -0.42089  -0.41903  -0.41796  -0.41211  -0.41010
  Beta  occ. eigenvalues --   -0.40343  -0.39872  -0.39582  -0.39116  -0.38896
  Beta  occ. eigenvalues --   -0.38501  -0.38091  -0.37930  -0.37753  -0.36659
  Beta  occ. eigenvalues --   -0.36290  -0.36196  -0.35820  -0.34910  -0.34783
  Beta  occ. eigenvalues --   -0.34534  -0.34224  -0.33251  -0.32876  -0.32226
  Beta  occ. eigenvalues --   -0.31982  -0.31487  -0.30951  -0.30476  -0.28830
  Beta  occ. eigenvalues --   -0.26686  -0.25999  -0.21261  -0.19154  -0.17621
  Beta  occ. eigenvalues --   -0.15488
  Beta virt. eigenvalues --   -0.09204  -0.09099  -0.04674  -0.01854   0.00938
  Beta virt. eigenvalues --    0.00954   0.02479   0.03154   0.03726   0.04309
  Beta virt. eigenvalues --    0.06226   0.06580   0.07651   0.07736   0.07945

 Mulliken charges and spin densities:
               1          2
     1  H    0.119553  -0.000010
     2  C   -0.342513   0.000001
     3  H    0.112896  -0.000009
     4  H    0.133082  -0.000043
     5  H    0.109499   0.000877
     6  O    0.009719   0.994386
     7  H    0.118423   0.000001
     8  O    0.011861   1.004042
     9  C   -0.125195   0.000020
    10  H    0.105892   0.000298
    11  H    0.114077  -0.000008
    12  C   -0.330742  -0.001317
    13  H    0.127118   0.000016
    14  H    0.119689  -0.000011
    15  H    0.125591   0.000014
    16  C   -0.354757   0.000009
    17  H    0.104828  -0.000001
    18  H    0.165416   0.000011
    19  Ru   0.166379  -0.000192
    20  H    0.136838   0.000031
    21  N   -0.256884   0.000011
    22  C   -0.090929   0.000018
    23  C    0.013414  -0.000277
    24  H    0.110132  -0.000012
    25  H    0.118589   0.000001
    26  C   -0.355179   0.000010
    27  C   -0.004922  -0.000004
    28  P    0.078235   0.000140
    29  H    0.125903  -0.000003
    30  C   -0.334536  -0.000003
    31  H    0.141911  -0.000010
    32  H    0.111936   0.000000
    33  H    0.106453  -0.000001
    34  C   -0.122444  -0.000035
    35  H    0.105732   0.000008
    36  C   -0.230698   0.000096
    37  C   -0.339848  -0.000015
    38  H    0.122661   0.000123
    39  C   -0.350906  -0.000024
    40  H    0.116931  -0.000009
    41  H    0.107585   0.000016
    42  C    0.111072   0.000087
    43  N   -0.220816   0.000012
    44  C   -0.321527   0.000015
    45  H    0.114789   0.000012
    46  H    0.141519   0.000033
    47  H    0.112608   0.000001
    48  H    0.111902   0.000001
    49  C   -0.271952   0.000019
    50  H    0.118200  -0.000001
    51  H    0.114404   0.000006
    52  C    0.046281  -0.000109
    53  C   -0.169822   0.000028
    54  H    0.119680   0.000001
    55  H    0.160240  -0.000001
    56  H    0.155040   0.000002
    57  H    0.141261  -0.000005
    58  C   -0.135682   0.000014
    59  C   -0.134180  -0.000063
    60  H    0.160826  -0.000002
    61  H    0.162344   0.000004
    62  O   -0.362651   0.000399
    63  O   -0.571117   0.000971
    64  H    0.263583   0.000103
    65  H    0.353207   0.000329
 Sum of Mulliken charges =  -0.00000   2.00000

 Dipole moment (field-independent basis, Debye):
    X=             -4.5732    Y=             -9.8899    Z=             -0.9735  Tot=             10.9394
 Quadrupole moment (field-independent basis, Debye-Ang):
   XX=           -163.0381   YY=           -182.1557   ZZ=           -201.4296
   XY=             -4.2834   XZ=              0.0141   YZ=              2.4269

 Normal termination of Gaussian 16 at Thu Jul 23 00:05:26 2020.
