 Gaussian 16, Revision A.03,
 Gaussian 16:  ES64L-G16RevA.03 25-Dec-2016

 -------------------------------------------------------------------
 # genecp pbe1pbe EmpiricalDispersion=GD3BJ scrf=(SMD,solvent=water)
 -------------------------------------------------------------------

 -------------------
 Title card Required
 -------------------
 Symbolic Z-matrix:
 Charge =  0 Multiplicity = 3

                         Standard orientation:
 ---------------------------------------------------------------------
 Center     Atomic      Atomic             Coordinates (Angstroms)
 Number     Number       Type             X           Y           Z
 ---------------------------------------------------------------------
      1          1           0       -3.529094    3.630664    0.686801
      2          6           0       -3.140137    2.675769    1.070093
      3          1           0       -3.707736    2.432969    1.980933
      4          1           0       -2.086580    2.821305    1.342409
      5          1           0        1.657586    1.623888   -1.725488
      6          8           0       -0.132491    4.151163   -1.879170
      7          1           0        4.214845    1.154282    0.974077
      8          8           0        1.023219    4.359753   -1.658555
      9          6           0       -3.284483    1.622271   -0.005418
     10          1           0        3.211076    1.417904   -2.582855
     11          1           0       -4.357632    1.461723   -0.231225
     12          6           0        2.684116    1.246535   -1.628835
     13          1           0        2.717870    1.877031    1.624090
     14          1           0        3.191329    1.834497   -0.851940
     15          1           0       -2.804635    1.954321   -0.936832
     16          6           0        3.457991    1.076687    1.767950
     17          1           0        3.969699    1.261012    2.727807
     18          1           0       -2.736019   -0.060237   -1.725767
     19         44           0       -0.407458    0.284772    0.366184
     20          1           0        0.825988   -0.579961   -2.467332
     21          7           0       -2.655289    0.319475    0.313333
     22          6           0       -2.977127   -0.602571   -0.795716
     23          6           0        2.663752   -0.252937   -1.323933
     24          1           0        2.330720   -0.713450   -3.404794
     25          1           0        4.612591   -1.380661    1.159396
     26          6           0        1.863142   -0.944637   -2.432823
     27          6           0        2.801693   -0.304851    1.806114
     28         15           0        1.673040   -0.504347    0.285259
     29          1           0       -4.050552   -0.862396   -0.819367
     30          6           0        3.870430   -1.387382    1.966545
     31          1           0       -2.685895    0.426027    2.394824
     32          1           0       -5.146550    0.534991    1.748554
     33          1           0        4.412309   -1.216458    2.912514
     34          6           0       -3.096063   -0.232819    1.617750
     35          1           0        4.517996   -0.719603   -2.319854
     36          6           0        0.126676    1.974099    0.779742
     37          6           0        4.082687   -0.813683   -1.310249
     38          1           0        1.064705    0.391810    2.931138
     39          6           0        1.860345   -0.362332    3.014468
     40          1           0        4.742371   -0.268604   -0.620642
     41          1           0        2.440922   -0.187064    3.936326
     42          6           0       -2.131243   -1.837518   -0.765026
     43          7           0       -0.885425   -1.649448   -0.286987
     44          6           0       -4.595789   -0.415165    1.810577
     45          1           0        1.856206   -2.040505   -2.327281
     46          1           0       -2.579271   -1.196049    1.740690
     47          1           0        3.436836   -2.397244    2.025158
     48          1           0       -5.036751   -1.113477    1.083598
     49          6           0        1.351591   -2.357849    0.297856
     50          1           0       -4.775566   -0.834345    2.811868
     51          1           0        4.109418   -1.881986   -1.043806
     52          6           0        0.009967   -2.662002   -0.292298
     53          6           0       -2.539678   -3.066605   -1.268236
     54          1           0        1.371795   -1.345160    3.112010
     55          1           0       -3.555227   -3.191031   -1.645811
     56          1           0        1.330800   -2.642390    1.362848
     57          1           0        2.143912   -2.955737   -0.177876
     58          6           0       -0.335344   -3.908281   -0.809776
     59          6           0       -1.622750   -4.114409   -1.298364
     60          1           0        0.402473   -4.711335   -0.818118
     61          1           0       -1.910038   -5.087988   -1.699422
     62          8           0        0.530542    3.048796    1.031790
     63          8           0       -1.020129    1.172830   -2.575932
     64          1           0       -0.848212    2.123142   -2.607746
     65          1           0       -0.641917    0.930916   -1.671892
 ---------------------------------------------------------------------

 SCF Done:  E(UPBE1PBE) =  -1630.03490337     A.U. after   26 cycles

 The electronic state is 3-A.
 Alpha  occ. eigenvalues --  -77.23776 -19.36156 -19.36098 -19.21610 -19.18337
 Alpha  occ. eigenvalues --  -14.42261 -14.42103 -10.28471 -10.28118 -10.27810
 Alpha  occ. eigenvalues --  -10.25395 -10.24952 -10.24606 -10.24445 -10.24116
 Alpha  occ. eigenvalues --  -10.23929 -10.23818 -10.23735 -10.22913 -10.20804
 Alpha  occ. eigenvalues --  -10.20551 -10.20532 -10.20482 -10.20452 -10.20345
 Alpha  occ. eigenvalues --  -10.20341 -10.20142  -6.61157  -4.74866  -4.74746
 Alpha  occ. eigenvalues --   -4.74475  -2.97672  -1.82979  -1.81434  -1.78381
 Alpha  occ. eigenvalues --   -1.34262  -1.09232  -1.00914  -1.00049  -0.96365
 Alpha  occ. eigenvalues --   -0.85910  -0.84502  -0.83493  -0.82842  -0.82155
 Alpha  occ. eigenvalues --   -0.77826  -0.76794  -0.73710  -0.70244  -0.70184
 Alpha  occ. eigenvalues --   -0.69701  -0.69207  -0.69133  -0.66093  -0.65251
 Alpha  occ. eigenvalues --   -0.62837  -0.61343  -0.58407  -0.58345  -0.57646
 Alpha  occ. eigenvalues --   -0.56654  -0.55548  -0.54602  -0.52900  -0.52608
 Alpha  occ. eigenvalues --   -0.52140  -0.51129  -0.50239  -0.49609  -0.48017
 Alpha  occ. eigenvalues --   -0.47378  -0.45933  -0.45363  -0.45183  -0.45002
 Alpha  occ. eigenvalues --   -0.44565  -0.44156  -0.43756  -0.43339  -0.42818
 Alpha  occ. eigenvalues --   -0.42092  -0.41902  -0.41654  -0.41224  -0.41008
 Alpha  occ. eigenvalues --   -0.40398  -0.40029  -0.39581  -0.39116  -0.38929
 Alpha  occ. eigenvalues --   -0.38515  -0.38063  -0.37936  -0.37740  -0.36658
 Alpha  occ. eigenvalues --   -0.36266  -0.36210  -0.35818  -0.34893  -0.34797
 Alpha  occ. eigenvalues --   -0.34531  -0.34234  -0.33261  -0.32885  -0.32154
 Alpha  occ. eigenvalues --   -0.31997  -0.31600  -0.31536  -0.31485  -0.30922
 Alpha  occ. eigenvalues --   -0.30475  -0.28844  -0.26678  -0.26036  -0.21306
 Alpha  occ. eigenvalues --   -0.19304  -0.17683  -0.15612
 Alpha virt. eigenvalues --   -0.04699  -0.01874   0.00905   0.00980   0.02497
 Alpha virt. eigenvalues --    0.03083   0.03664   0.04226   0.06208   0.06550
 Alpha virt. eigenvalues --    0.07651   0.07769   0.07905   0.08120   0.08993

  Beta  occ. eigenvalues --  -77.23776 -19.32977 -19.32934 -19.21613 -19.18331
  Beta  occ. eigenvalues --  -14.42261 -14.42104 -10.28471 -10.28118 -10.27814
  Beta  occ. eigenvalues --  -10.25395 -10.24952 -10.24606 -10.24445 -10.24116
  Beta  occ. eigenvalues --  -10.23929 -10.23818 -10.23735 -10.22913 -10.20804
  Beta  occ. eigenvalues --  -10.20551 -10.20532 -10.20482 -10.20452 -10.20345
  Beta  occ. eigenvalues --  -10.20341 -10.20141  -6.61157  -4.74866  -4.74746
  Beta  occ. eigenvalues --   -4.74476  -2.97630  -1.82935  -1.81402  -1.78314
  Beta  occ. eigenvalues --   -1.28343  -1.09237  -1.00897  -1.00048  -0.96365
  Beta  occ. eigenvalues --   -0.84502  -0.83493  -0.82842  -0.82154  -0.77826
  Beta  occ. eigenvalues --   -0.76794  -0.76320  -0.73710  -0.70244  -0.70183
  Beta  occ. eigenvalues --   -0.69701  -0.69204  -0.69132  -0.66093  -0.65251
  Beta  occ. eigenvalues --   -0.62837  -0.61341  -0.57646  -0.55560  -0.54643
  Beta  occ. eigenvalues --   -0.52916  -0.52829  -0.52577  -0.52088  -0.51117
  Beta  occ. eigenvalues --   -0.50229  -0.49614  -0.48059  -0.47480  -0.47313
  Beta  occ. eigenvalues --   -0.47144  -0.45929  -0.45359  -0.45141  -0.45001
  Beta  occ. eigenvalues --   -0.44552  -0.44139  -0.43753  -0.43336  -0.42786
  Beta  occ. eigenvalues --   -0.42076  -0.41899  -0.41520  -0.41206  -0.41003
  Beta  occ. eigenvalues --   -0.40395  -0.39951  -0.39578  -0.39110  -0.38925
  Beta  occ. eigenvalues --   -0.38514  -0.38059  -0.37934  -0.37738  -0.36656
  Beta  occ. eigenvalues --   -0.36265  -0.36200  -0.35817  -0.34890  -0.34788
  Beta  occ. eigenvalues --   -0.34530  -0.34221  -0.33237  -0.32880  -0.32155
  Beta  occ. eigenvalues --   -0.31981  -0.31517  -0.30927  -0.30479  -0.28844
  Beta  occ. eigenvalues --   -0.26677  -0.26034  -0.21293  -0.19273  -0.17664
  Beta  occ. eigenvalues --   -0.15547
  Beta virt. eigenvalues --   -0.09352  -0.09172  -0.04683  -0.01873   0.00944
  Beta virt. eigenvalues --    0.01038   0.02529   0.03117   0.03736   0.04257
  Beta virt. eigenvalues --    0.06223   0.06561   0.07667   0.07777   0.07921

 Mulliken charges and spin densities:
               1          2
     1  H    0.119536   0.000088
     2  C   -0.345096  -0.000029
     3  H    0.113653   0.000098
     4  H    0.133425  -0.000007
     5  H    0.110603  -0.001636
     6  O    0.007101   0.985730
     7  H    0.118550  -0.000001
     8  O    0.020114   1.007835
     9  C   -0.122973  -0.000133
    10  H    0.106256   0.000230
    11  H    0.115274   0.000003
    12  C   -0.328826   0.000236
    13  H    0.126954  -0.000009
    14  H    0.120132   0.000296
    15  H    0.126548   0.000048
    16  C   -0.356103   0.000019
    17  H    0.104713   0.000003
    18  H    0.165502   0.000118
    19  Ru   0.143188   0.010654
    20  H    0.133668   0.000159
    21  N   -0.257676   0.000050
    22  C   -0.094505   0.000028
    23  C    0.011485   0.000200
    24  H    0.109785   0.000001
    25  H    0.118894   0.000001
    26  C   -0.356029   0.000004
    27  C   -0.004951  -0.000027
    28  P    0.077110  -0.000258
    29  H    0.126236  -0.000001
    30  C   -0.334770  -0.000003
    31  H    0.141532  -0.000036
    32  H    0.112033   0.000002
    33  H    0.106544  -0.000003
    34  C   -0.125930  -0.000061
    35  H    0.105549  -0.000004
    36  C   -0.228650  -0.004706
    37  C   -0.339119  -0.000022
    38  H    0.125086   0.000111
    39  C   -0.350120   0.000004
    40  H    0.116946   0.000003
    41  H    0.107539   0.000037
    42  C    0.110132   0.000300
    43  N   -0.211651  -0.000412
    44  C   -0.321672   0.000041
    45  H    0.114680   0.000021
    46  H    0.142809  -0.000180
    47  H    0.112587   0.000002
    48  H    0.111667   0.000005
    49  C   -0.270196  -0.000128
    50  H    0.118261  -0.000003
    51  H    0.114139   0.000049
    52  C    0.046235   0.000044
    53  C   -0.170296  -0.000067
    54  H    0.119981   0.000062
    55  H    0.160241   0.000001
    56  H    0.155767   0.000064
    57  H    0.141584   0.000016
    58  C   -0.136051  -0.000081
    59  C   -0.132132   0.000116
    60  H    0.160875   0.000005
    61  H    0.162415  -0.000005
    62  O   -0.363058  -0.000918
    63  O   -0.570694   0.003063
    64  H    0.265166  -0.001148
    65  H    0.360003   0.000129
 Sum of Mulliken charges =  -0.00000   2.00000

 Dipole moment (field-independent basis, Debye):
    X=             -2.9631    Y=            -10.2926    Z=              0.3277  Tot=             10.7156
 Quadrupole moment (field-independent basis, Debye-Ang):
   XX=           -162.1943   YY=           -181.9758   ZZ=           -202.3066
   XY=             -2.1618   XZ=             -1.7495   YZ=             -1.4840

 Normal termination of Gaussian 16 at Thu Jul 23 00:19:48 2020.
