 Gaussian 16, Revision A.03,
 Gaussian 16:  ES64L-G16RevA.03 25-Dec-2016

 ----------------------------------------------------------------------
 # genecp pbe1pbe EmpiricalDispersion=GD3BJ scrf=(SMD,solvent=water) ge
 om=allcheck
 ----------------------------------------------------------------------

 Structure from the checkpoint file:  "/scratch/js1212.757591/J-Trans-R2-R2-Down-T-GP-SMD.chk"
 -------------------
 Title Card Required
 -------------------
 Charge =  0 Multiplicity = 3

                         Standard orientation:
 ---------------------------------------------------------------------
 Center     Atomic      Atomic             Coordinates (Angstroms)
 Number     Number       Type             X           Y           Z
 ---------------------------------------------------------------------
      1          1           0       -1.036469    3.369855    3.086858
      2          6           0       -1.877382    2.671750    2.959780
      3          1           0       -2.494199    2.734438    3.869280
      4          1           0       -1.452239    1.659360    2.885732
      5          1           0       -0.507419   -0.711388   -1.975038
      6          8           0       -1.820187    1.311053   -0.745822
      7          1           0       -0.323822   -2.699163   -0.179143
      8          8           0       -0.705687    1.265913   -0.068040
      9          1           0       -0.939255   -0.267171    1.974309
     10          6           0       -2.636824    3.059835    1.710698
     11          1           0       -0.557412   -1.157730   -3.693578
     12          1           0       -3.074235    4.071222    1.821540
     13          6           0       -0.904006   -1.445402   -2.686815
     14          1           0       -1.203483   -2.512956    1.341128
     15          1           0       -0.448403   -2.416140   -2.447113
     16          1           0       -1.946516    3.096545    0.857966
     17          6           0       -1.068341   -3.176908    0.475827
     18          1           0       -0.644707   -4.130427    0.834703
     19          1           0       -3.610359    2.886670   -0.596543
     20         44           0       -3.009808    0.085818    0.505041
     21          1           0       -2.627767    0.693818   -2.506793
     22          7           0       -3.712659    2.112282    1.329991
     23          6           0       -4.399647    2.662874    0.139464
     24          6           0       -2.431735   -1.489763   -2.672113
     25          1           0       -2.598708    0.046296   -4.161536
     26          1           0       -1.389817   -4.276534   -2.004964
     27          6           0       -2.972832   -0.131562   -3.139168
     28          6           0       -2.397579   -3.458192   -0.232043
     29         15           0       -3.003966   -1.764286   -0.868301
     30          1           0       -4.920240    3.607831    0.369597
     31          6           0       -2.187525   -4.534003   -1.296201
     32          1           0       -4.144515    1.361188    3.227043
     33          1           0       -4.655379    3.834861    3.441926
     34          1           0       -1.882066   -5.464186   -0.788161
     35          6           0       -4.682614    1.890227    2.431007
     36          1           0       -2.655891   -2.202410   -4.683094
     37          6           0       -3.547615   -0.873285    1.964464
     38          6           0       -2.945895   -2.530874   -3.670840
     39          1           0       -3.664928   -3.291033    1.567261
     40          6           0       -3.402043   -4.010380    0.782797
     41          1           0       -2.526965   -3.530322   -3.522659
     42          1           0       -2.943104   -4.879562    1.282530
     43          6           0       -5.342342    1.669219   -0.479403
     44          7           0       -4.843099    0.426123   -0.546747
     45          6           0       -5.367760    3.124388    2.997718
     46          1           0       -4.072018   -0.118760   -3.190475
     47          1           0       -5.434029    1.183717    2.048702
     48          1           0       -3.106542   -4.755439   -1.858531
     49          1           0       -5.969855    3.663070    2.250450
     50          6           0       -4.870582   -1.930444   -1.058735
     51          1           0       -6.054427    2.806702    3.796507
     52          1           0       -4.043903   -2.608632   -3.666872
     53          6           0       -5.527403   -0.581079   -1.115597
     54          6           0       -6.597225    1.965794   -0.996437
     55          1           0       -4.324634   -4.365923    0.298086
     56          1           0       -6.995888    2.979088   -0.930385
     57          1           0       -5.197757   -2.415468   -0.124317
     58          1           0       -5.192573   -2.572482   -1.891423
     59          6           0       -6.782926   -0.341349   -1.674487
     60          6           0       -7.319712    0.942310   -1.611399
     61          1           0       -7.334001   -1.155891   -2.146654
     62          1           0       -8.304744    1.144724   -2.035712
     63          8           0       -3.877954   -1.415153    2.946735
     64          6           0        1.952810   -3.886765    2.673905
     65          1           0        0.590005    1.456773   -1.779196
     66          8           0       -0.271238   -0.286140    2.683691
     67          1           0        1.011792    3.362811   -0.253990
     68          8           0        1.586456   -0.940963   -0.354055
     69          1           0        0.515390    0.073131    2.227419
     70          6           0        1.995659   -2.437194    2.216593
     71          1           0        0.644599    1.537778   -3.561613
     72          6           0        1.129995    1.884917   -2.633923
     73          1           0        1.900240    3.083057    1.242209
     74          1           0        1.006323    2.976888   -2.590766
     75          6           0        1.874838    3.703423    0.335919
     76          1           0        1.712978    4.757020    0.620631
     77          1           0        2.733780   -2.804868   -0.128292
     78         44           0        3.055212    0.121135    0.690588
     79          1           0        2.211817   -0.627001   -2.158742
     80          7           0        3.286929   -1.955264    1.673911
     81          6           0        3.647083   -2.761522    0.486937
     82          6           0        2.600208    1.466048   -2.654179
     83          1           0        2.155485   -0.212114   -3.914976
     84          1           0        2.347593    4.452839   -2.276650
     85          6           0        2.683454   -0.035217   -2.961809
     86          6           0        3.195614    3.591509   -0.436025
     87         15           0        3.345746    1.750312   -0.912082
     88          1           0        3.954387   -3.783005    0.769832
     89          6           0        3.201606    4.581660   -1.600116
     90          1           0        5.247899   -1.512200    2.219342
     91          1           0        3.585564   -0.422990    3.892275
     92          1           0        3.137149    5.601471   -1.184393
     93          6           0        4.382444   -2.026885    2.663911
     94          1           0        2.860632    1.914439   -4.731261
     95          6           0        4.192260    0.958187    1.839509
     96          6           0        3.340292    2.197148   -3.778820
     97          1           0        4.450368    3.320295    1.358169
     98          6           0        4.350448    3.980336    0.489783
     99          1           0        3.302184    3.288941   -3.707651
    100          1           0        4.158438    4.997304    0.871001
    101          6           0        4.712729   -2.115236   -0.349616
    102          7           0        4.582382   -0.788021   -0.471059
    103          6           0        4.043391   -1.414381    4.008144
    104          1           0        3.723921   -0.364993   -3.105955
    105          1           0        4.679663   -3.085054    2.803716
    106          1           0        4.130157    4.528367   -2.187742
    107          1           0        3.353517   -2.045292    4.586404
    108          6           0        5.173020    1.422027   -1.231563
    109          1           0        4.964935   -1.295369    4.596278
    110          1           0        4.393374    1.887383   -3.854953
    111          6           0        5.419694   -0.059438   -1.230519
    112          6           0        5.728611   -2.795219   -1.014220
    113          1           0        5.313464    4.012681   -0.043421
    114          1           0        5.830964   -3.875291   -0.902351
    115          1           0        5.696156    1.853830   -0.362578
    116          1           0        5.579018    1.898628   -2.134799
    117          6           0        6.445910   -0.686390   -1.936389
    118          6           0        6.597884   -2.066279   -1.823855
    119          1           0        7.118446   -0.096217   -2.559867
    120          1           0        7.399925   -2.573566   -2.363446
    121          1           0        0.779122   -0.424797   -0.228590
    122          8           0        4.892794    1.462818    2.628864
    123          1           0        0.951647   -4.088809    3.083220
    124          1           0        2.681127   -4.111937    3.469259
    125          1           0        2.115930   -4.599773    1.850814
    126          1           0        1.272526   -2.247670    1.414865
    127          1           0        1.715354   -1.770461    3.038052
    128          1           0        1.863827    0.784311    1.548438
 ---------------------------------------------------------------------

 SCF Done:  E(UPBE1PBE) =  -3109.87204585     A.U. after   26 cycles

 Alpha virt. eigenvalues --    2.88300   2.88469   2.88835   2.88994   2.89149
 Alpha virt. eigenvalues --    2.89313   2.89742   2.89801   2.90081   2.90459
 Alpha virt. eigenvalues --    2.90676   2.90990   2.91211   2.91593   2.91757

  Beta  occ. eigenvalues --  -77.25375 -77.25057 -19.24352 -19.24061 -19.23406
  Beta  occ. eigenvalues --  -19.21922 -19.18495 -19.12811 -14.42628 -14.42217
  Beta  occ. eigenvalues --  -14.42089 -14.41866 -10.30591 -10.29875 -10.28595
  Beta  occ. eigenvalues --  -10.28440 -10.28054 -10.27987 -10.25698 -10.25171
  Beta  occ. eigenvalues --  -10.24956 -10.24924 -10.24847 -10.24768 -10.24678
  Beta  occ. eigenvalues --  -10.24552 -10.24535 -10.24519 -10.24348 -10.23917
  Beta  occ. eigenvalues --  -10.23902 -10.23885 -10.23867 -10.23416 -10.23280
  Beta  occ. eigenvalues --  -10.23193 -10.20743 -10.20731 -10.20677 -10.20641
  Beta  occ. eigenvalues --  -10.20631 -10.20620 -10.20451 -10.20426 -10.20412
  Beta  occ. eigenvalues --  -10.20393 -10.20333 -10.20230 -10.20225 -10.20152
  Beta  occ. eigenvalues --  -10.19907 -10.19121  -6.62725  -6.62409  -4.76405
  Beta  occ. eigenvalues --   -4.76317  -4.76084  -4.76080  -4.76009  -4.75765
  Beta  occ. eigenvalues --   -3.03246  -3.00764  -1.87279  -1.86028  -1.85487
  Beta  occ. eigenvalues --   -1.85478  -1.84114  -1.81462  -1.13380  -1.11691
  Beta  occ. eigenvalues --   -1.11074  -1.01395  -1.00265  -1.00033  -0.96435
  Beta  occ. eigenvalues --   -0.96262  -0.92180  -0.84742  -0.84726  -0.83453
  Beta  occ. eigenvalues --   -0.83306  -0.83034  -0.82950  -0.82415  -0.82198
  Beta  occ. eigenvalues --   -0.77766  -0.77717  -0.76824  -0.76479  -0.75081
  Beta  occ. eigenvalues --   -0.73807  -0.73794  -0.70368  -0.70316  -0.70251
  Beta  occ. eigenvalues --   -0.70133  -0.69904  -0.69825  -0.69519  -0.69331
  Beta  occ. eigenvalues --   -0.68979  -0.68653  -0.66027  -0.65501  -0.65397
  Beta  occ. eigenvalues --   -0.65242  -0.63626  -0.62870  -0.61786  -0.61632
  Beta  occ. eigenvalues --   -0.57656  -0.57354  -0.56479  -0.55976  -0.55760
  Beta  occ. eigenvalues --   -0.55666  -0.53373  -0.53132  -0.52968  -0.52685
  Beta  occ. eigenvalues --   -0.51987  -0.51740  -0.51480  -0.50991  -0.50109
  Beta  occ. eigenvalues --   -0.49991  -0.49380  -0.48679  -0.48346  -0.47785
  Beta  occ. eigenvalues --   -0.47489  -0.46835  -0.46642  -0.46036  -0.45857
  Beta  occ. eigenvalues --   -0.45671  -0.45649  -0.45480  -0.45253  -0.45080
  Beta  occ. eigenvalues --   -0.44917  -0.44841  -0.44394  -0.44290  -0.44161
  Beta  occ. eigenvalues --   -0.44037  -0.43710  -0.43544  -0.43426  -0.43124
  Beta  occ. eigenvalues --   -0.43095  -0.42960  -0.42918  -0.42643  -0.42503
  Beta  occ. eigenvalues --   -0.42337  -0.41996  -0.41872  -0.41730  -0.41355
  Beta  occ. eigenvalues --   -0.41108  -0.41038  -0.40860  -0.40552  -0.39942
  Beta  occ. eigenvalues --   -0.39872  -0.39797  -0.39688  -0.39518  -0.38732
  Beta  occ. eigenvalues --   -0.38601  -0.38448  -0.38249  -0.38116  -0.37894
  Beta  occ. eigenvalues --   -0.37773  -0.37706  -0.37615  -0.37527  -0.37328
  Beta  occ. eigenvalues --   -0.36664  -0.36566  -0.36515  -0.36422  -0.36268
  Beta  occ. eigenvalues --   -0.36172  -0.36084  -0.35829  -0.35406  -0.35368
  Beta  occ. eigenvalues --   -0.34824  -0.34584  -0.34495  -0.34345  -0.34095
  Beta  occ. eigenvalues --   -0.34004  -0.33741  -0.33323  -0.33168  -0.33058
  Beta  occ. eigenvalues --   -0.32713  -0.32577  -0.32285  -0.32003  -0.31813
  Beta  occ. eigenvalues --   -0.31333  -0.31289  -0.31033  -0.30383  -0.29717
  Beta  occ. eigenvalues --   -0.29488  -0.28980  -0.27575  -0.27110  -0.26871
  Beta  occ. eigenvalues --   -0.26807  -0.26660  -0.26249  -0.23083  -0.22716
  Beta  occ. eigenvalues --   -0.22014  -0.21661  -0.20569  -0.20280  -0.19590
  Beta virt. eigenvalues --   -0.06917  -0.04303  -0.03868  -0.01945  -0.01934
  Beta virt. eigenvalues --   -0.01594  -0.00232   0.00841   0.01186   0.01505
  Beta virt. eigenvalues --    0.02582   0.02704   0.02921   0.03162   0.03650

 Mulliken charges and spin densities:
               1          2
     1  H    0.119164   0.000372
     2  C   -0.353960   0.000785
     3  H    0.115567   0.000446
     4  H    0.108491   0.001639
     5  H    0.096442  -0.002418
     6  O   -0.301916   0.473598
     7  H    0.116992  -0.000418
     8  O   -0.289412   0.568694
     9  H    0.282302   0.021721
    10  C   -0.134837  -0.002013
    11  H    0.111705   0.000239
    12  H    0.121305   0.000838
    13  C   -0.344941  -0.000761
    14  H    0.128311  -0.005299
    15  H    0.132810   0.000040
    16  H    0.154942   0.001193
    17  C   -0.342802   0.001904
    18  H    0.115287   0.001487
    19  H    0.169594  -0.000196
    20  Ru   0.737127   0.833484
    21  H    0.151583  -0.003126
    22  N   -0.230805  -0.002530
    23  C   -0.123506   0.011868
    24  C    0.010748  -0.003430
    25  H    0.110267   0.000168
    26  H    0.118326   0.000048
    27  C   -0.391014   0.007167
    28  C    0.001531  -0.001934
    29  P    0.038507  -0.016774
    30  H    0.129530  -0.000908
    31  C   -0.335539  -0.000410
    32  H    0.133386  -0.001176
    33  H    0.112567  -0.000019
    34  H    0.107805   0.000034
    35  C   -0.126620  -0.001461
    36  H    0.108372  -0.000350
    37  C   -0.237008   0.001023
    38  C   -0.338280  -0.000172
    39  H    0.141578  -0.000225
    40  C   -0.368609  -0.000067
    41  H    0.121156   0.000051
    42  H    0.108111  -0.000077
    43  C    0.123608   0.000456
    44  N   -0.187437   0.057476
    45  C   -0.327302   0.000001
    46  H    0.125412  -0.000067
    47  H    0.142669  -0.000048
    48  H    0.112715   0.000038
    49  H    0.111353   0.000044
    50  C   -0.219569  -0.000728
    51  H    0.118401   0.000083
    52  H    0.115693   0.000007
    53  C    0.031745   0.005698
    54  C   -0.159202   0.000949
    55  H    0.114615  -0.000048
    56  H    0.161932   0.001627
    57  H    0.162575  -0.000240
    58  H    0.142930  -0.000983
    59  C   -0.137035  -0.000009
    60  C   -0.139883   0.006225
    61  H    0.162008   0.001246
    62  H    0.162061  -0.000452
    63  O   -0.320802   0.016625
    64  C   -0.340090  -0.000016
    65  H    0.136696  -0.000703
    66  O   -0.565868   0.017037
    67  H    0.121651  -0.000380
    68  O   -0.760668   0.006433
    69  H    0.329449  -0.000481
    70  C   -0.102118   0.000211
    71  H    0.107803   0.000022
    72  C   -0.386623   0.001904
    73  H    0.138511   0.000181
    74  H    0.126706   0.000026
    75  C   -0.353567   0.000499
    76  H    0.111008   0.000089
    77  H    0.173222  -0.000001
    78  Ru   0.767680   0.000256
    79  H    0.159077  -0.000020
    80  N   -0.198448  -0.000010
    81  C   -0.115467   0.000159
    82  C    0.026558  -0.000325
    83  H    0.106043  -0.000011
    84  H    0.119956  -0.000027
    85  C   -0.423729   0.000000
    86  C    0.011607   0.000132
    87  P    0.107820   0.000606
    88  H    0.124727   0.000015
    89  C   -0.334136   0.000006
    90  H    0.145786   0.000003
    91  H    0.126585  -0.000085
    92  H    0.108092   0.000003
    93  C   -0.119728   0.000009
    94  H    0.107259   0.000001
    95  C   -0.181921   0.000108
    96  C   -0.337832   0.000067
    97  H    0.144948  -0.000012
    98  C   -0.374988   0.000032
    99  H    0.121545   0.000001
   100  H    0.109463  -0.000000
   101  C    0.093299   0.000001
   102  N   -0.138565   0.000062
   103  C   -0.342315  -0.000002
   104  H    0.120722  -0.000000
   105  H    0.117800  -0.000001
   106  H    0.112295   0.000005
   107  H    0.118498  -0.000013
   108  C   -0.238460   0.000001
   109  H    0.122532  -0.000003
   110  H    0.112497   0.000006
   111  C    0.032816  -0.000016
   112  C   -0.157551   0.000017
   113  H    0.115288   0.000037
   114  H    0.162124   0.000000
   115  H    0.165542  -0.000003
   116  H    0.140842   0.000001
   117  C   -0.126912   0.000008
   118  C   -0.137241  -0.000013
   119  H    0.162850  -0.000002
   120  H    0.162471   0.000001
   121  H    0.277020   0.003279
   122  O   -0.311312   0.000026
   123  H    0.121257   0.000012
   124  H    0.113710   0.000001
   125  H    0.112209   0.000000
   126  H    0.116929  -0.000649
   127  H    0.118201   0.000213
   128  H   -0.364298   0.000374
 Sum of Mulliken charges =  -0.00000   2.00000

 Dipole moment (field-independent basis, Debye):
    X=             -3.6518    Y=             -1.1330    Z=            -12.1944  Tot=             12.7797
 Quadrupole moment (field-independent basis, Debye-Ang):
   XX=           -250.7038   YY=           -328.8454   ZZ=           -390.8181
   XY=            -31.6149   XZ=             -3.2852   YZ=              3.5761

 Normal termination of Gaussian 16 at Thu Jul 23 00:43:05 2020.
