 Gaussian 16, Revision A.03,
 Gaussian 16:  ES64L-G16RevA.03 25-Dec-2016

 ----------------------------------------------------------------------
 # genecp pbe1pbe EmpiricalDispersion=GD3BJ scrf=(SMD,solvent=water) ge
 om=allcheck
 ----------------------------------------------------------------------

 Structure from the checkpoint file:  "/scratch/js1212.757594/J-Trans-R2-R2-Down-TSGuess-T-GP-SMD.chk"
 -------------------
 Title Card Required
 -------------------
 Charge =  0 Multiplicity = 3

                         Standard orientation:
 ---------------------------------------------------------------------
 Center     Atomic      Atomic             Coordinates (Angstroms)
 Number     Number       Type             X           Y           Z
 ---------------------------------------------------------------------
      1          1           0        2.210392   -2.233552   -4.323022
      2          6           0        2.940196   -2.100648   -3.510920
      3          1           0        3.782170   -2.781024   -3.709121
      4          1           0        2.443986   -2.396075   -2.574048
      5          1           0        0.287286    0.697004    0.934499
      6          8           0        2.001974    0.899682   -1.115626
      7          1           0        0.787529   -1.870166    2.197827
      8          8           0        0.910092    0.329225   -1.548212
      9          1           0        1.656125   -2.289024   -0.306839
     10          6           0        3.355220   -0.646521   -3.468218
     11          1           0       -0.287404    1.933936    2.067126
     12          1           0        3.815468   -0.341254   -4.427378
     13          6           0        0.393076    1.073782    1.960783
     14          1           0        2.175954   -2.858111    1.708815
     15          1           0        0.042019    0.289336    2.648746
     16          1           0        2.466628   -0.019090   -3.318195
     17          6           0        1.707143   -2.350538    2.562038
     18          1           0        1.422514   -3.118999    3.300189
     19          1           0        3.624752    1.645946   -2.498292
     20         44           0        3.371292   -0.492951   -0.275600
     21          1           0        2.201716    2.333355    0.266324
     22          7           0        4.285489   -0.320835   -2.360271
     23          6           0        4.593078    1.126219   -2.424187
     24          6           0        1.820215    1.517013    2.276867
     25          1           0        1.501887    3.466680    1.440840
     26          1           0        1.063784   -0.505821    4.447359
     27          6           0        2.226353    2.644187    1.317264
     28          6           0        2.672146   -1.357637    3.219992
     29         15           0        2.964713    0.031175    1.934898
     30          1           0        5.184325    1.378307   -3.320061
     31          6           0        2.079750   -0.907667    4.554206
     32          1           0        5.272398   -2.156993   -2.218247
     33          1           0        5.776597   -1.426416   -4.579307
     34          1           0        2.012297   -1.788951    5.213717
     35          6           0        5.539709   -1.113573   -2.423895
     36          1           0        1.381036    3.072192    3.685244
     37          6           0        4.293261   -2.007411    0.167573
     38          6           0        1.900137    2.099431    3.691850
     39          1           0        4.543014   -2.368495    2.622067
     40          6           0        3.995705   -2.065661    3.523162
     41          1           0        1.411746    1.480309    4.449743
     42          1           0        3.774005   -2.984861    4.090327
     43          6           0        5.274738    1.619095   -1.177564
     44          7           0        4.801595    1.080305   -0.044265
     45          6           0        6.335526   -1.033268   -3.717622
     46          1           0        3.220710    3.051004    1.558995
     47          1           0        6.158895   -0.785252   -1.576003
     48          1           0        2.706437   -0.162872    5.064433
     49          1           0        6.665517   -0.011840   -3.959516
     50          6           0        4.666140    0.732794    2.339660
     51          1           0        7.241743   -1.647405   -3.607721
     52          1           0        2.934707    2.294718    4.014821
     53          6           0        5.249566    1.460710    1.163139
     54          6           0        6.263609    2.595054   -1.144497
     55          1           0        4.654661   -1.448024    4.152616
     56          1           0        6.647116    3.023079   -2.071600
     57          1           0        5.298602   -0.149912    2.526525
     58          1           0        4.692458    1.352540    3.247999
     59          6           0        6.226367    2.452039    1.262616
     60          6           0        6.736200    3.018734    0.097711
     61          1           0        6.584748    2.768473    2.243038
     62          1           0        7.506625    3.789701    0.156848
     63          8           0        4.869153   -3.006759    0.367311
     64          6           0       -1.977251   -4.456657    1.528016
     65          1           0       -2.501782    2.181853    2.195992
     66          8           0        0.830572   -2.381243   -0.814910
     67          1           0       -1.091111    3.086088   -0.248087
     68          8           0       -3.053470   -0.363685    1.914511
     69          1           0        0.677800   -1.445498   -1.076689
     70          6           0       -1.936404   -3.025620    1.012222
     71          1           0       -3.387132    3.546419    2.927344
     72          6           0       -3.080333    3.087885    1.971900
     73          1           0       -0.980995    1.828623   -1.487570
     74          1           0       -2.429151    3.805570    1.450271
     75          6           0       -1.332656    2.850941   -1.295817
     76          1           0       -0.759201    3.544420   -1.934336
     77          1           0       -4.120419   -2.219941    1.932694
     78         44           0       -2.986489   -0.338108   -0.188462
     79          1           0       -4.602003    0.800151    2.147528
     80          7           0       -3.086824   -2.598684    0.178644
     81          6           0       -4.341809   -2.685800    0.958795
     82          6           0       -4.322270    2.725024    1.158346
     83          1           0       -5.403231    2.201561    2.937680
     84          1           0       -2.902945    4.905162   -0.447545
     85          6           0       -5.165942    1.730587    1.967788
     86          6           0       -2.826922    3.028335   -1.586786
     87         15           0       -3.737762    1.814919   -0.420113
     88          1           0       -4.656085   -3.733776    1.103583
     89          6           0       -3.192318    4.503195   -1.427589
     90          1           0       -3.999555   -2.907701   -1.665920
     91          1           0       -1.444302   -2.689576   -2.038788
     92          1           0       -2.637506    5.077117   -2.189071
     93          6           0       -3.242441   -3.414528   -1.047464
     94          1           0       -5.656857    4.237344    1.886058
     95          6           0       -2.674603   -0.479595   -1.974425
     96          6           0       -5.187183    3.967926    0.925129
     97          1           0       -2.913670    1.594266   -3.263546
     98          6           0       -3.107288    2.650002   -3.043848
     99          1           0       -4.624603    4.842029    0.582948
    100          1           0       -2.436631    3.243228   -3.687838
    101          6           0       -5.459407   -1.890363    0.345164
    102          7           0       -5.078803   -0.716996   -0.178089
    103          6           0       -1.972272   -3.628814   -1.842387
    104          1           0       -6.125658    1.513034    1.474156
    105          1           0       -3.670630   -4.398119   -0.768716
    106          1           0       -4.262955    4.695025   -1.587651
    107          1           0       -1.265609   -4.294814   -1.329634
    108          6           0       -5.382763    1.419331   -1.255730
    109          1           0       -2.232301   -4.085655   -2.809088
    110          1           0       -6.007251    3.784175    0.213989
    111          6           0       -5.964108    0.155250   -0.687401
    112          6           0       -6.801551   -2.257633    0.362988
    113          1           0       -4.139580    2.895570   -3.338750
    114          1           0       -7.102721   -3.218658    0.781720
    115          1           0       -5.124613    1.228410   -2.309962
    116          1           0       -6.115285    2.239888   -1.239131
    117          6           0       -7.325510   -0.148374   -0.682256
    118          6           0       -7.741629   -1.368242   -0.154647
    119          1           0       -8.045674    0.561885   -1.090291
    120          1           0       -8.802214   -1.627276   -0.148737
    121          1           0       -2.218354    0.014582    2.208176
    122          8           0       -2.409407   -0.605364   -3.106818
    123          1           0       -1.061138   -4.645177    2.108865
    124          1           0       -2.003879   -5.202509    0.718280
    125          1           0       -2.830165   -4.647331    2.198051
    126          1           0       -1.922540   -2.308953    1.845370
    127          1           0       -1.029340   -2.854029    0.416873
    128          1           0       -1.411111   -0.099928   -0.073919
 ---------------------------------------------------------------------

 SCF Done:  E(UPBE1PBE) =  -3109.87269633     A.U. after   26 cycles

 Alpha virt. eigenvalues --    2.87909   2.88198   2.88373   2.88529   2.88827
 Alpha virt. eigenvalues --    2.89078   2.89412   2.89647   2.89900   2.90089
 Alpha virt. eigenvalues --    2.90346   2.90550   2.90786   2.90885   2.91186

  Beta  occ. eigenvalues --  -77.25232 -77.25160 -19.24095 -19.23784 -19.23573
  Beta  occ. eigenvalues --  -19.21804 -19.18145 -19.12986 -14.42793 -14.42110
  Beta  occ. eigenvalues --  -14.41971 -14.41795 -10.30395 -10.30113 -10.28549
  Beta  occ. eigenvalues --  -10.28471 -10.28143 -10.27957 -10.25653 -10.24969
  Beta  occ. eigenvalues --  -10.24925 -10.24912 -10.24866 -10.24792 -10.24634
  Beta  occ. eigenvalues --  -10.24611 -10.24479 -10.24427 -10.24419 -10.23939
  Beta  occ. eigenvalues --  -10.23894 -10.23785 -10.23771 -10.23322 -10.23321
  Beta  occ. eigenvalues --  -10.23172 -10.20787 -10.20721 -10.20647 -10.20612
  Beta  occ. eigenvalues --  -10.20548 -10.20543 -10.20458 -10.20435 -10.20391
  Beta  occ. eigenvalues --  -10.20389 -10.20367 -10.20327 -10.20193 -10.20128
  Beta  occ. eigenvalues --  -10.20079 -10.19276  -6.62568  -6.62509  -4.76248
  Beta  occ. eigenvalues --   -4.76183  -4.76167  -4.76108  -4.75920  -4.75866
  Beta  occ. eigenvalues --   -3.02905  -3.00969  -1.87023  -1.85740  -1.85640
  Beta  occ. eigenvalues --   -1.85040  -1.84347  -1.81638  -1.13076  -1.11469
  Beta  occ. eigenvalues --   -1.11151  -1.01030  -1.00141  -1.00076  -0.96533
  Beta  occ. eigenvalues --   -0.96059  -0.92396  -0.84775  -0.84620  -0.83383
  Beta  occ. eigenvalues --   -0.83325  -0.83038  -0.82868  -0.82445  -0.82237
  Beta  occ. eigenvalues --   -0.77883  -0.77525  -0.76922  -0.76376  -0.75385
  Beta  occ. eigenvalues --   -0.73873  -0.73684  -0.70422  -0.70323  -0.70235
  Beta  occ. eigenvalues --   -0.70047  -0.69908  -0.69746  -0.69563  -0.69369
  Beta  occ. eigenvalues --   -0.68934  -0.68673  -0.66089  -0.65460  -0.65393
  Beta  occ. eigenvalues --   -0.65109  -0.63477  -0.62991  -0.61720  -0.61643
  Beta  occ. eigenvalues --   -0.57740  -0.57192  -0.56263  -0.56040  -0.55816
  Beta  occ. eigenvalues --   -0.55659  -0.53231  -0.53192  -0.52860  -0.52756
  Beta  occ. eigenvalues --   -0.52030  -0.51532  -0.51342  -0.51041  -0.49994
  Beta  occ. eigenvalues --   -0.49921  -0.49261  -0.48579  -0.48352  -0.47747
  Beta  occ. eigenvalues --   -0.47549  -0.46862  -0.46532  -0.45983  -0.45851
  Beta  occ. eigenvalues --   -0.45656  -0.45637  -0.45450  -0.45198  -0.45108
  Beta  occ. eigenvalues --   -0.44911  -0.44724  -0.44375  -0.44194  -0.44161
  Beta  occ. eigenvalues --   -0.44033  -0.43800  -0.43540  -0.43306  -0.43186
  Beta  occ. eigenvalues --   -0.43106  -0.43022  -0.42760  -0.42468  -0.42408
  Beta  occ. eigenvalues --   -0.42370  -0.42052  -0.42008  -0.41716  -0.41293
  Beta  occ. eigenvalues --   -0.41175  -0.40983  -0.40783  -0.40574  -0.39980
  Beta  occ. eigenvalues --   -0.39898  -0.39837  -0.39661  -0.39429  -0.38771
  Beta  occ. eigenvalues --   -0.38644  -0.38315  -0.38195  -0.38004  -0.37837
  Beta  occ. eigenvalues --   -0.37738  -0.37695  -0.37610  -0.37476  -0.37185
  Beta  occ. eigenvalues --   -0.36633  -0.36622  -0.36447  -0.36370  -0.36328
  Beta  occ. eigenvalues --   -0.36162  -0.35916  -0.35714  -0.35373  -0.35138
  Beta  occ. eigenvalues --   -0.34794  -0.34560  -0.34502  -0.34294  -0.34043
  Beta  occ. eigenvalues --   -0.33932  -0.33872  -0.33363  -0.33277  -0.33228
  Beta  occ. eigenvalues --   -0.32648  -0.32572  -0.32226  -0.32062  -0.31676
  Beta  occ. eigenvalues --   -0.31399  -0.31204  -0.31138  -0.30235  -0.29720
  Beta  occ. eigenvalues --   -0.29501  -0.29158  -0.27275  -0.26969  -0.26760
  Beta  occ. eigenvalues --   -0.26692  -0.26630  -0.26152  -0.23290  -0.22450
  Beta  occ. eigenvalues --   -0.22310  -0.21877  -0.20401  -0.20263  -0.19802
  Beta virt. eigenvalues --   -0.06763  -0.04344  -0.03718  -0.02188  -0.01854
  Beta virt. eigenvalues --   -0.01828   0.00434   0.00838   0.01174   0.01537
  Beta virt. eigenvalues --    0.02071   0.02817   0.02967   0.03448   0.03492

 Mulliken charges and spin densities:
               1          2
     1  H    0.120061   0.000745
     2  C   -0.347410   0.000997
     3  H    0.115891   0.000039
     4  H    0.109111   0.002562
     5  H    0.115199  -0.002634
     6  O   -0.295434   0.459432
     7  H    0.127569  -0.001964
     8  O   -0.317507   0.533823
     9  H    0.273893   0.024638
    10  C   -0.125237  -0.003011
    11  H    0.130093   0.000296
    12  H    0.122180   0.000768
    13  C   -0.366079  -0.000883
    14  H    0.136811  -0.004118
    15  H    0.133694   0.000176
    16  H    0.152441   0.001285
    17  C   -0.355643   0.002502
    18  H    0.113414   0.001275
    19  H    0.171459  -0.001392
    20  Ru   0.734908   0.868064
    21  H    0.162264  -0.004302
    22  N   -0.242274  -0.000370
    23  C   -0.128415   0.013858
    24  C    0.013312  -0.003659
    25  H    0.110669   0.000155
    26  H    0.120722   0.000033
    27  C   -0.398416   0.010112
    28  C    0.015810  -0.001996
    29  P    0.053378  -0.015348
    30  H    0.130128  -0.000880
    31  C   -0.336841  -0.000433
    32  H    0.132812  -0.000781
    33  H    0.112289  -0.000025
    34  H    0.108034  -0.000043
    35  C   -0.125818  -0.000845
    36  H    0.109527  -0.000326
    37  C   -0.234869   0.015244
    38  C   -0.341819  -0.000144
    39  H    0.137690   0.000212
    40  C   -0.359879  -0.000041
    41  H    0.119801   0.000109
    42  H    0.108580  -0.000073
    43  C    0.138941  -0.004331
    44  N   -0.191129   0.058858
    45  C   -0.325635  -0.000002
    46  H    0.124221  -0.000009
    47  H    0.143018  -0.000098
    48  H    0.112789   0.000053
    49  H    0.111554   0.000015
    50  C   -0.224412  -0.000534
    51  H    0.118453   0.000102
    52  H    0.118795   0.000053
    53  C    0.035001   0.001728
    54  C   -0.164407   0.003753
    55  H    0.112567  -0.000032
    56  H    0.161959   0.001491
    57  H    0.159462  -0.000340
    58  H    0.146219  -0.001002
    59  C   -0.138556   0.002791
    60  C   -0.135746   0.000811
    61  H    0.162276   0.001161
    62  H    0.162325  -0.000152
    63  O   -0.318893   0.019655
    64  C   -0.335256  -0.000008
    65  H    0.119932   0.000015
    66  O   -0.550190   0.028295
    67  H    0.127121   0.000086
    68  O   -0.731831  -0.000053
    69  H    0.316662  -0.012124
    70  C   -0.135714   0.000523
    71  H    0.107340  -0.000002
    72  C   -0.350075  -0.000005
    73  H    0.118688  -0.001825
    74  H    0.123675  -0.000009
    75  C   -0.347416   0.000061
    76  H    0.111039   0.000013
    77  H    0.173080  -0.000002
    78  Ru   0.754542   0.004434
    79  H    0.157476  -0.000009
    80  N   -0.199361  -0.000070
    81  C   -0.111908   0.000033
    82  C    0.011351  -0.000016
    83  H    0.102473   0.000000
    84  H    0.117795  -0.000002
    85  C   -0.401129  -0.000001
    86  C    0.006700  -0.000072
    87  P    0.103804   0.000291
    88  H    0.122609  -0.000005
    89  C   -0.337709   0.000090
    90  H    0.142346  -0.000004
    91  H    0.120713   0.000036
    92  H    0.107848  -0.000008
    93  C   -0.117652   0.000078
    94  H    0.107837  -0.000000
    95  C   -0.160753  -0.000447
    96  C   -0.338075  -0.000002
    97  H    0.142185  -0.000012
    98  C   -0.370457   0.000014
    99  H    0.118232   0.000002
   100  H    0.106706  -0.000001
   101  C    0.095987  -0.000037
   102  N   -0.132816   0.000934
   103  C   -0.344696   0.000408
   104  H    0.113622   0.000000
   105  H    0.116905   0.000003
   106  H    0.113313   0.000028
   107  H    0.113943   0.000060
   108  C   -0.234425   0.000013
   109  H    0.122448   0.000082
   110  H    0.115953  -0.000001
   111  C    0.036735  -0.000150
   112  C   -0.163047   0.000077
   113  H    0.114042  -0.000001
   114  H    0.160721   0.000014
   115  H    0.160693  -0.000004
   116  H    0.144920  -0.000003
   117  C   -0.136043   0.000070
   118  C   -0.135714  -0.000069
   119  H    0.163205   0.000012
   120  H    0.162203   0.000003
   121  H    0.277646  -0.000146
   122  O   -0.316556   0.000083
   123  H    0.120505   0.000013
   124  H    0.109158  -0.000006
   125  H    0.112793   0.000015
   126  H    0.136972   0.000051
   127  H    0.121979  -0.000316
   128  H   -0.407978   0.002546
 Sum of Mulliken charges =  -0.00000   2.00000

 Dipole moment (field-independent basis, Debye):
    X=              3.1823    Y=              7.9953    Z=              2.5050  Tot=              8.9625
 Quadrupole moment (field-independent basis, Debye-Ang):
   XX=           -241.6712   YY=           -356.2963   ZZ=           -361.9588
   XY=             40.1500   XZ=              6.5733   YZ=             -5.8546

 Normal termination of Gaussian 16 at Thu Jul 23 00:22:48 2020.
