 Gaussian 16, Revision A.03,
 Gaussian 16:  ES64L-G16RevA.03 25-Dec-2016

 ----------------------------------------------------------------------
 # nmr genecp pbe1pbe EmpiricalDispersion=GD3BJ scrf=(SMD,solvent=water
 ) geom=allcheck
 ----------------------------------------------------------------------

 Structure from the checkpoint file:  "/scratch/js1212.15462/2-Full-TPy-B-GPOF.chk"
 -------------------
 Title Card Required
 -------------------
 Charge =  0 Multiplicity = 1

                         Standard orientation:
 ---------------------------------------------------------------------
 Center     Atomic      Atomic             Coordinates (Angstroms)
 Number     Number       Type             X           Y           Z
 ---------------------------------------------------------------------
      1          7           0       -0.760118    1.357018    0.060738
      2          6           0       -1.988082    1.760186    0.411301
      3          6           0        0.145610    2.211683   -0.439334
      4          6           0       -2.359107    3.096524    0.325304
      5          6           0       -1.415011    4.014828   -0.133166
      6          6           0       -0.155504    3.572479   -0.524487
      7          6           0       -2.864320    0.651431    0.915825
      8          1           0       -3.363915    3.410354    0.610354
      9          1           0       -1.669223    5.074137   -0.203515
     10          1           0        0.587026    4.270301   -0.913431
     11          6           0        1.425747    1.612954   -0.940350
     12          7           0       -2.710875   -0.578887    0.109036
     13          1           0       -3.916953    0.978071    0.972233
     14          1           0       -2.541569    0.402954    1.940003
     15          1           0        1.240371    1.354713   -1.997009
     16         15           0        1.764372   -0.065143   -0.172202
     17          1           0        2.262641    2.323264   -0.880303
     18         44           0       -0.402781   -0.733105    0.000887
     19          6           0       -3.280974   -0.394880   -1.246052
     20          6           0        2.985285   -0.860389   -1.403684
     21          6           0       -3.355959   -1.690118    0.840912
     22          6           0        2.685849    0.379176    1.439161
     23          6           0        2.160821   -1.502960   -2.521208
     24          6           0        3.767160   -1.975206   -0.707599
     25          6           0        3.946682    0.148991   -2.035609
     26          6           0        1.783305    1.347860    2.213247
     27          6           0        4.029793    1.070135    1.204190
     28          6           0        2.903331   -0.866850    2.302963
     29          1           0       -0.177408   -2.288737   -0.350442
     30          1           0       -2.679908    0.381938   -1.736124
     31          6           0       -4.770860   -0.099120   -1.321832
     32          1           0       -3.045986   -1.307896   -1.806748
     33          1           0       -2.861289   -1.746893    1.820754
     34          6           0       -3.242361   -3.026680    0.140653
     35          1           0       -4.418025   -1.442177    1.033169
     36          6           0       -0.363407   -1.290631    1.733837
     37          8           0       -0.552410   -0.244212   -2.029433
     38          1           0       -0.519538   -1.071458   -2.521091
     39          1           0       -2.191544   -3.215706   -0.126672
     40          1           0       -3.857419   -3.080264   -0.769831
     41          1           0       -3.584786   -3.821873    0.819105
     42          1           0       -5.052600   -0.005930   -2.381527
     43          1           0       -5.047940    0.848742   -0.835224
     44          1           0       -5.392557   -0.898108   -0.889219
     45          1           0        2.853510   -1.966374   -3.244061
     46          1           0        1.533881   -0.767694   -3.042036
     47          1           0        1.497242   -2.278577   -2.113553
     48          1           0        4.307781   -2.558434   -1.471512
     49          1           0        3.093958   -2.665581   -0.176585
     50          1           0        4.514403   -1.594510    0.002008
     51          1           0        4.624427   -0.389638   -2.719363
     52          1           0        4.570134    0.676904   -1.303599
     53          1           0        3.411407    0.896762   -2.638456
     54          1           0        4.777407    0.397678    0.762441
     55          1           0        4.429611    1.407194    2.175391
     56          1           0        3.940934    1.960741    0.563577
     57          1           0        3.625365   -1.564232    1.862217
     58          1           0        1.969708   -1.410192    2.489235
     59          1           0        3.304711   -0.550871    3.280716
     60          1           0        2.244431    1.550159    3.193945
     61          1           0        0.783368    0.927863    2.385440
     62          1           0        1.669942    2.313226    1.697928
     63          8           0       -0.397073   -1.720728    2.822296
 ---------------------------------------------------------------------

 SCF Done:  E(RPBE1PBE) =  -1479.80987799     A.U. after   17 cycles

      1  N    Isotropic =   -49.0297   Anisotropy =   405.0113

      2  C    Isotropic =    22.9680   Anisotropy =   168.0158

      3  C    Isotropic =    19.5046   Anisotropy =   179.7695

      4  C    Isotropic =    63.6959   Anisotropy =   168.6199

      5  C    Isotropic =    44.2317   Anisotropy =   204.6184

      6  C    Isotropic =    61.3796   Anisotropy =   167.9644

      7  C    Isotropic =   121.7174   Anisotropy =    49.6341

      8  H    Isotropic =    23.6328   Anisotropy =     7.2434

      9  H    Isotropic =    23.2132   Anisotropy =     4.4380

     10  H    Isotropic =    23.4613   Anisotropy =     8.5175

     11  C    Isotropic =   146.5591   Anisotropy =    44.6974

     12  N    Isotropic =   192.3978   Anisotropy =    81.2416

     13  H    Isotropic =    26.8785   Anisotropy =     8.5176

     14  H    Isotropic =    26.9481   Anisotropy =     3.8030

     15  H    Isotropic =    26.7716   Anisotropy =     3.0182

     16  P    Isotropic =   198.7053   Anisotropy =   226.7579

     17  H    Isotropic =    27.4464   Anisotropy =     7.6998

     18  Ru   Isotropic =  -383.2827   Anisotropy =   147.2933

     19  C    Isotropic =   143.1387   Anisotropy =    25.3183

     20  C    Isotropic =   146.6395   Anisotropy =    26.8562

     21  C    Isotropic =   134.7246   Anisotropy =    54.9710

     22  C    Isotropic =   143.7622   Anisotropy =    27.4858

     23  C    Isotropic =   154.2290   Anisotropy =    40.0789

     24  C    Isotropic =   158.6078   Anisotropy =    30.8800

     25  C    Isotropic =   161.1272   Anisotropy =    37.1375

     26  C    Isotropic =   156.6376   Anisotropy =    37.1904

     27  C    Isotropic =   160.2734   Anisotropy =    32.6357

     28  C    Isotropic =   159.9299   Anisotropy =    37.2471

     29  H    Isotropic =    39.1930   Anisotropy =    17.5623

     30  H    Isotropic =    28.4608   Anisotropy =    10.1794

     31  C    Isotropic =   184.6011   Anisotropy =    11.3303

     32  H    Isotropic =    29.1260   Anisotropy =     5.2218

     33  H    Isotropic =    28.0754   Anisotropy =     5.2759

     34  C    Isotropic =   170.8718   Anisotropy =    25.1428

     35  H    Isotropic =    28.1672   Anisotropy =     7.9635

     36  C    Isotropic =   -46.0725   Anisotropy =   457.5623

     37  O    Isotropic =   332.8703   Anisotropy =   108.3324

     38  H    Isotropic =    32.9891   Anisotropy =    17.4299

     39  H    Isotropic =    29.1718   Anisotropy =     9.3324

     40  H    Isotropic =    29.9226   Anisotropy =     8.6172

     41  H    Isotropic =    29.9515   Anisotropy =    12.2184

     42  H    Isotropic =    30.8947   Anisotropy =    12.3001

     43  H    Isotropic =    30.2974   Anisotropy =     9.5655

     44  H    Isotropic =    30.2786   Anisotropy =     9.8435

     45  H    Isotropic =    30.6539   Anisotropy =    10.2202

     46  H    Isotropic =    29.1361   Anisotropy =     6.7128

     47  H    Isotropic =    29.5042   Anisotropy =     6.5341

     48  H    Isotropic =    30.3056   Anisotropy =    10.4910

     49  H    Isotropic =    29.8016   Anisotropy =     6.2444

     50  H    Isotropic =    29.5478   Anisotropy =     7.3887

     51  H    Isotropic =    30.3686   Anisotropy =    11.2621

     52  H    Isotropic =    29.3379   Anisotropy =     7.0636

     53  H    Isotropic =    29.9746   Anisotropy =     7.2973

     54  H    Isotropic =    29.5099   Anisotropy =     7.7525

     55  H    Isotropic =    30.2699   Anisotropy =    10.9132

     56  H    Isotropic =    29.5365   Anisotropy =     7.1533

     57  H    Isotropic =    29.6486   Anisotropy =     7.3810

     58  H    Isotropic =    29.4538   Anisotropy =     7.5497

     59  H    Isotropic =    30.6043   Anisotropy =    10.9316

     60  H    Isotropic =    30.9164   Anisotropy =    10.3860

     61  H    Isotropic =    29.9221   Anisotropy =     7.1884

     62  H    Isotropic =    30.6546   Anisotropy =     6.7207

     63  O    Isotropic =   -40.4064   Anisotropy =   557.6887

 The electronic state is 1-A.
 Alpha  occ. eigenvalues --  -77.25212 -19.23778 -19.12790 -14.42398 -14.41867
 Alpha  occ. eigenvalues --  -10.30334 -10.28489 -10.28032 -10.25715 -10.24925
 Alpha  occ. eigenvalues --  -10.24819 -10.24705 -10.24511 -10.23899 -10.23822
 Alpha  occ. eigenvalues --  -10.23738 -10.23080 -10.20790 -10.20777 -10.20666
 Alpha  occ. eigenvalues --  -10.20662 -10.20641 -10.20500 -10.20417 -10.20119
 Alpha  occ. eigenvalues --   -6.62586  -4.76260  -4.76181  -4.75942  -3.03063
 Alpha  occ. eigenvalues --   -1.87205  -1.85832  -1.85234  -1.11385  -1.00279
 Alpha  occ. eigenvalues --   -0.96384  -0.92168  -0.84872  -0.83443  -0.83003
 Alpha  occ. eigenvalues --   -0.82512  -0.77708  -0.76705  -0.73832  -0.70436
 Alpha  occ. eigenvalues --   -0.70240  -0.70001  -0.69457  -0.69177  -0.65936
 Alpha  occ. eigenvalues --   -0.65577  -0.62994  -0.61674  -0.57514  -0.56256
 Alpha  occ. eigenvalues --   -0.55917  -0.53188  -0.52777  -0.51799  -0.50896
 Alpha  occ. eigenvalues --   -0.50166  -0.48162  -0.47420  -0.46803  -0.45878
 Alpha  occ. eigenvalues --   -0.45543  -0.45209  -0.44860  -0.44634  -0.44281
 Alpha  occ. eigenvalues --   -0.43862  -0.43597  -0.43307  -0.42847  -0.42416
 Alpha  occ. eigenvalues --   -0.41804  -0.41449  -0.41203  -0.40137  -0.39675
 Alpha  occ. eigenvalues --   -0.39168  -0.38859  -0.38393  -0.38358  -0.38199
 Alpha  occ. eigenvalues --   -0.37901  -0.37062  -0.36419  -0.36386  -0.36233
 Alpha  occ. eigenvalues --   -0.35410  -0.34818  -0.34518  -0.34394  -0.33702
 Alpha  occ. eigenvalues --   -0.33454  -0.32912  -0.32533  -0.31576  -0.31198
 Alpha  occ. eigenvalues --   -0.29866  -0.28986  -0.27714  -0.27154  -0.26705
 Alpha  occ. eigenvalues --   -0.26360  -0.22472  -0.22255  -0.20651
 Alpha virt. eigenvalues --   -0.03775  -0.01914   0.00360   0.00980   0.01699
 Alpha virt. eigenvalues --    0.02989   0.03107   0.03777   0.03897   0.05897
 Alpha virt. eigenvalues --    0.06345   0.07335   0.07724   0.07804   0.07983

 Mulliken charges:
               1
     1  N   -0.162006
     2  C    0.078759
     3  C    0.073177
     4  C   -0.162572
     5  C   -0.131240
     6  C   -0.147920
     7  C   -0.085040
     8  H    0.161543
     9  H    0.161961
    10  H    0.161943
    11  C   -0.231778
    12  N   -0.218963
    13  H    0.127309
    14  H    0.162331
    15  H    0.170355
    16  P    0.202245
    17  H    0.147965
    18  Ru   0.486481
    19  C   -0.094480
    20  C   -0.002189
    21  C   -0.114081
    22  C   -0.008223
    23  C   -0.355993
    24  C   -0.344019
    25  C   -0.334063
    26  C   -0.350310
    27  C   -0.335676
    28  C   -0.354157
    29  H   -0.295488
    30  H    0.144679
    31  C   -0.326267
    32  H    0.131975
    33  H    0.135572
    34  C   -0.336738
    35  H    0.114237
    36  C   -0.159967
    37  O   -0.703567
    38  H    0.268428
    39  H    0.132377
    40  H    0.112424
    41  H    0.118279
    42  H    0.115429
    43  H    0.108771
    44  H    0.109689
    45  H    0.108793
    46  H    0.116818
    47  H    0.135989
    48  H    0.107497
    49  H    0.123092
    50  H    0.121311
    51  H    0.108192
    52  H    0.123564
    53  H    0.114444
    54  H    0.118886
    55  H    0.108294
    56  H    0.118247
    57  H    0.119823
    58  H    0.136346
    59  H    0.107078
    60  H    0.112238
    61  H    0.143911
    62  H    0.118794
    63  O   -0.314511
 Sum of Mulliken charges =  -0.00000

 Dipole moment (field-independent basis, Debye):
    X=             -0.5556    Y=              8.1071    Z=              0.2714  Tot=              8.1306
 Quadrupole moment (field-independent basis, Debye-Ang):
   XX=           -146.3682   YY=           -171.6114   ZZ=           -197.0011
   XY=             -1.6470   XZ=             -5.7886   YZ=              6.4308

 Normal termination of Gaussian 16 at Mon Nov 12 23:25:06 2018.
