 Gaussian 16, Revision A.03,
 Gaussian 16:  ES64L-G16RevA.03 25-Dec-2016

 ----------------------------------------------------------------------
 # genecp pbe1pbe EmpiricalDispersion=GD3BJ scrf=(SMD,solvent=water) td
 =nstates=12 geom=allcheck
 ----------------------------------------------------------------------

 Structure from the checkpoint file:  "/scratch/js1212.579946/F-R2-R2-Down-GPOF-Disp.chk"
 -------------------
 Title Card Required
 -------------------
 Charge =  0 Multiplicity = 3

                         Standard orientation:
 ---------------------------------------------------------------------
 Center     Atomic      Atomic             Coordinates (Angstroms)
 Number     Number       Type             X           Y           Z
 ---------------------------------------------------------------------
      1          1           0        0.318629   -4.295646   -0.543675
      2          6           0       -0.747820   -4.056201   -0.660069
      3          1           0       -1.256655   -4.958125   -1.034758
      4          1           0       -0.834244   -3.259024   -1.413830
      5          1           0       -0.898634    2.854726    0.604796
      6          8           0       -0.810905   -0.465198   -1.742470
      7          1           0       -1.038049    3.356020   -1.860629
      8          8           0       -1.244852   -0.420662    1.013479
      9          1           0       -0.197308   -0.010362   -1.120691
     10          6           0       -1.293049   -3.578155    0.668985
     11          1           0       -1.522752    4.120178    1.696530
     12          1           0       -1.264909   -4.400870    1.414793
     13          6           0       -1.716738    3.578785    0.754412
     14          1           0       -1.156040    1.734556   -2.602683
     15          1           0       -1.688684    4.320262   -0.057724
     16          1           0       -0.658520   -2.764395    1.049535
     17          6           0       -1.586513    2.748497   -2.594065
     18          1           0       -1.437883    3.209069   -3.585703
     19          1           0       -2.249120   -1.890793    2.237443
     20         44           0       -2.423612   -0.744114   -0.659792
     21          1           0       -2.346004    1.114246    1.953356
     22          7           0       -2.643890   -3.019255    0.569418
     23          6           0       -3.080839   -2.504175    1.851215
     24          6           0       -3.072952    2.876405    0.857815
     25          1           0       -2.705491    2.566653    2.959079
     26          1           0       -3.189953    4.762397   -1.589967
     27          6           0       -3.036074    1.964444    2.094615
     28          6           0       -3.088357    2.684720   -2.286095
     29         15           0       -3.248313    1.722850   -0.654505
     30          1           0       -3.317032   -3.296034    2.589221
     31          6           0       -3.702082    4.081833   -2.283926
     32          1           0       -3.314527   -4.050858   -1.106160
     33          1           0       -2.957813   -5.856586    0.634870
     34          1           0       -3.612354    4.517044   -3.294436
     35          6           0       -3.629653   -3.895926   -0.064664
     36          1           0       -4.025180    4.455540    1.971487
     37          6           0       -3.364562   -1.341200   -2.125814
     38          6           0       -4.196496    3.896285    1.034963
     39          1           0       -3.373464    0.823304   -3.404628
     40          6           0       -3.750142    1.854771   -3.388793
     41          1           0       -4.251574    4.628112    0.219444
     42          1           0       -3.510936    2.312809   -4.362971
     43          6           0       -4.257807   -1.586999    1.699251
     44          7           0       -4.217364   -0.729026    0.665000
     45          6           0       -3.868783   -5.239424    0.612862
     46          1           0       -4.032735    1.568622    2.340577
     47          1           0       -4.575004   -3.333171   -0.122468
     48          1           0       -4.772516    4.064063   -2.026863
     49          1           0       -4.225926   -5.128222    1.648534
     50          6           0       -5.035214    1.187020   -0.585440
     51          1           0       -4.636879   -5.801154    0.059865
     52          1           0       -5.179723    3.410232    1.131399
     53          6           0       -5.195056    0.187677    0.519194
     54          6           0       -5.312785   -1.584488    2.608643
     55          1           0       -4.846809    1.833788   -3.300163
     56          1           0       -5.312137   -2.302252    3.429902
     57          1           0       -5.222784    0.687774   -1.548633
     58          1           0       -5.759609    2.006739   -0.475893
     59          6           0       -6.281100    0.233611    1.392987
     60          6           0       -6.344234   -0.667199    2.449041
     61          1           0       -7.058580    0.983105    1.241088
     62          1           0       -7.185334   -0.648356    3.144686
     63          8           0       -3.952392   -1.781036   -3.031273
     64          6           0        0.466339    0.929436    4.499277
     65          1           0        1.051193   -1.869142   -1.773868
     66          8           0        0.682454    1.251874   -0.045348
     67          1           0        1.175041    0.580343   -3.038986
     68          8           0        1.590544   -1.203805    0.910531
     69          1           0        0.688476    1.875126   -0.777947
     70          6           0        0.801494    0.869993    3.018107
     71          1           0        1.583717   -3.349780   -2.614697
     72          6           0        1.791469   -2.276005   -2.475568
     73          1           0        1.809037    2.093880   -2.354490
     74          1           0        1.630514   -1.784649   -3.445949
     75          6           0        1.946250    1.356467   -3.157612
     76          1           0        1.775846    1.870546   -4.118057
     77          1           0        2.267591   -1.133798    2.938735
     78         44           0        2.566844    0.544289    0.426329
     79          1           0        2.699202   -2.516439    0.116572
     80          7           0        2.239603    0.908721    2.671094
     81          6           0        2.921615   -0.285782    3.205233
     82          6           0        3.220671   -2.109622   -1.963572
     83          1           0        3.149697   -3.953076   -0.873154
     84          1           0        2.922987   -0.735976   -4.640673
     85          6           0        3.387403   -2.897124   -0.657259
     86          6           0        3.373531    0.797440   -3.128931
     87         15           0        3.472210   -0.271037   -1.544169
     88          1           0        3.060769   -0.225422    4.298109
     89          6           0        3.649803    0.060490   -4.438837
     90          1           0        3.921375    2.136849    2.745998
     91          1           0        1.867474    3.419286    1.765047
     92          1           0        3.571273    0.790154   -5.262182
     93          6           0        2.905718    2.129146    3.170400
     94          1           0        4.104092   -3.776164   -2.971414
     95          6           0        3.376194    2.162881    0.151029
     96          6           0        4.223653   -2.680009   -2.971800
     97          1           0        4.282150    2.546754   -2.131567
     98          6           0        4.368049    1.958388   -3.052408
     99          1           0        4.065183   -2.339100   -3.999294
    100          1           0        4.164473    2.641133   -3.894278
    101          6           0        4.232120   -0.552436    2.529836
    102          7           0        4.260661   -0.293475    1.208122
    103          6           0        2.178371    3.412709    2.818299
    104          1           0        4.427331   -2.871955   -0.293508
    105          1           0        3.024869    2.058294    4.269256
    106          1           0        4.662970   -0.363970   -4.473383
    107          1           0        1.280958    3.558336    3.436426
    108          6           0        5.264881   -0.215905   -0.987451
    109          1           0        2.845974    4.270260    2.985117
    110          1           0        5.269863   -2.478526   -2.693550
    111          6           0        5.351938   -0.573172    0.465053
    112          6           0        5.335747   -1.106216    3.169245
    113          1           0        5.408719    1.615451   -3.160353
    114          1           0        5.297137   -1.300721    4.241474
    115          1           0        5.576221    0.834815   -1.101758
    116          1           0        5.947601   -0.829934   -1.591407
    117          6           0        6.476942   -1.145000    1.054226
    118          6           0        6.468753   -1.410955    2.419899
    119          1           0        7.348751   -1.374134    0.440854
    120          1           0        7.344356   -1.852338    2.899147
    121          1           0        0.634958   -1.055552    0.775719
    122          8           0        3.872459    3.213005    0.030621
    123          1           0       -0.628246    0.888162    4.605261
    124          1           0        0.808800    1.854731    4.988859
    125          1           0        0.877160    0.075454    5.060026
    126          1           0        0.399951   -0.046467    2.569434
    127          1           0        0.326003    1.695344    2.475193
    128          1           0       -0.663250    0.321722    0.763618
 ---------------------------------------------------------------------

 SCF Done:  E(UPBE1PBE) =  -3109.35631196     A.U. after   23 cycles

 Excitation energies and oscillator strengths:

 Excited State   1:  3.011-A      1.5500 eV  799.89 nm  f=0.0001  <S**2>=2.016
    219B -> 226B      -0.11480
    221B -> 226B      -0.27505
    222B -> 226B       0.26793
    223B -> 226B       0.18976
    224B -> 226B       0.67073
    224B -> 228B       0.16817
    225B -> 226B       0.49962
    225B -> 228B       0.12278
 This state for optimization and/or second-order correction.
 Total Energy, E(TD-HF/TD-DFT) =  -3109.29934996
 Copying the excited state density for this state as the 1-particle RhoCI density.

 Excited State   2:  3.012-A      1.7014 eV  728.74 nm  f=0.0009  <S**2>=2.018
    221B -> 226B      -0.18207
    222B -> 226B       0.84148
    222B -> 228B       0.20072
    222B -> 229B      -0.11563
    223B -> 226B      -0.18718
    224B -> 226B      -0.28884

 Excited State   3:  3.060-A      1.8072 eV  686.05 nm  f=0.0021  <S**2>=2.091
    227A -> 228A       0.97545
    227A -> 229A       0.11092

 Excited State   4:  3.030-A      2.3724 eV  522.61 nm  f=0.0009  <S**2>=2.045
    227A -> 228A       0.11098
    227A -> 229A       0.18309
    227A -> 231A       0.21216
    227A -> 232A      -0.13396
    227A -> 233A       0.74594
    227A -> 234A      -0.25296
    227A -> 236A      -0.31879
    227A -> 239A       0.11118
    227A -> 240A      -0.18677
    227A -> 241A       0.17822
    227A -> 244A      -0.15964

 Excited State   5:  3.060-A      2.4401 eV  508.11 nm  f=0.0000  <S**2>=2.091
    227A -> 228A      -0.13271
    227A -> 229A       0.97490
    227A -> 233A      -0.11305

 Excited State   6:  3.063-A      2.5315 eV  489.77 nm  f=0.0017  <S**2>=2.096
    227A -> 230A       0.10214
    227A -> 231A       0.96302
    227A -> 233A      -0.17929

 Excited State   7:  4.131-A      2.6620 eV  465.75 nm  f=0.0000  <S**2>=4.016
    223A -> 232A      -0.18790
    226A -> 229A       0.12057
    226A -> 232A       0.60715
    222B -> 232B       0.11409
    223B -> 232B       0.16779
    224B -> 232B       0.26382
    225B -> 227B      -0.11268
    225B -> 232B      -0.54679

 Excited State   8:  3.025-A      2.8195 eV  439.74 nm  f=0.0089  <S**2>=2.037
    227A -> 235A      -0.10038
    227A -> 237A      -0.17181
    227A -> 238A      -0.14515
    219B -> 229B      -0.10738
    222B -> 229B      -0.23029
    222B -> 231B      -0.14403
    223B -> 229B       0.20932
    223B -> 231B       0.12642
    224B -> 228B       0.22030
    224B -> 229B       0.57002
    224B -> 231B       0.33876
    225B -> 228B       0.14763
    225B -> 229B       0.34597
    225B -> 231B       0.20248

 Excited State   9:  3.022-A      2.9174 eV  424.98 nm  f=0.0024  <S**2>=2.033
    227A -> 236A      -0.26687
    227A -> 237A       0.24524
    227A -> 238A      -0.22894
    221B -> 229B       0.21458
    221B -> 231B       0.13251
    222B -> 228B      -0.23655
    222B -> 229B      -0.62711
    222B -> 231B      -0.38236
    225B -> 229B      -0.17649
    225B -> 231B      -0.10435

 Excited State  10:  3.062-A      2.9987 eV  413.47 nm  f=0.0000  <S**2>=2.094
    227A -> 230A       0.99049

 Excited State  11:  4.133-A      3.0025 eV  412.93 nm  f=0.0000  <S**2>=4.021
    216A -> 230A       0.10059
    222A -> 229A       0.17474
    226A -> 229A       0.59384
    214B -> 230B      -0.10289
    221B -> 227B      -0.21353
    224B -> 227B       0.15450
    225B -> 227B      -0.57949

 Excited State  12:  3.060-A      3.0318 eV  408.94 nm  f=0.0014  <S**2>=2.092
    227A -> 238A       0.10725
    222B -> 226B      -0.12383
    224B -> 226B      -0.46911
    225B -> 226B       0.83589

 The electronic state is 3-A.
 Alpha  occ. eigenvalues --  -77.25462 -77.23432 -19.26253 -19.25923 -19.17445
 Alpha  occ. eigenvalues --  -19.16166 -19.13871 -19.13638 -14.44435 -14.43346
 Alpha  occ. eigenvalues --  -14.43032 -14.40651 -10.31806 -10.31241 -10.29507
 Alpha  occ. eigenvalues --  -10.29379 -10.29019 -10.28755 -10.25800 -10.25770
 Alpha  occ. eigenvalues --  -10.25750 -10.25551 -10.25385 -10.25255 -10.25200
 Alpha  occ. eigenvalues --  -10.25105 -10.24939 -10.24762 -10.24758 -10.24731
 Alpha  occ. eigenvalues --  -10.24549 -10.24519 -10.24413 -10.24358 -10.24112
 Alpha  occ. eigenvalues --  -10.24033 -10.21745 -10.21728 -10.21692 -10.21691
 Alpha  occ. eigenvalues --  -10.21667 -10.21624 -10.21507 -10.21485 -10.21453
 Alpha  occ. eigenvalues --  -10.21429 -10.21190 -10.21189 -10.21158 -10.20955
 Alpha  occ. eigenvalues --  -10.20547 -10.20096  -6.63358  -6.61545  -4.77010
 Alpha  occ. eigenvalues --   -4.76919  -4.76679  -4.75164  -4.75078  -4.74848
 Alpha  occ. eigenvalues --   -3.07791  -3.04319  -1.92060  -1.91479  -1.89661
 Alpha  occ. eigenvalues --   -1.88200  -1.87091  -1.86611  -1.12761  -1.12370
 Alpha  occ. eigenvalues --   -1.00821  -1.00234  -0.96532  -0.95969  -0.95542
 Alpha  occ. eigenvalues --   -0.93585  -0.92021  -0.90923  -0.84995  -0.84707
 Alpha  occ. eigenvalues --   -0.83858  -0.83741  -0.83338  -0.82928  -0.82358
 Alpha  occ. eigenvalues --   -0.82205  -0.77730  -0.77396  -0.76759  -0.76671
 Alpha  occ. eigenvalues --   -0.74080  -0.73736  -0.70398  -0.70283  -0.70196
 Alpha  occ. eigenvalues --   -0.69890  -0.69835  -0.69636  -0.69444  -0.69202
 Alpha  occ. eigenvalues --   -0.68866  -0.68664  -0.65842  -0.65566  -0.65291
 Alpha  occ. eigenvalues --   -0.65234  -0.63870  -0.62812  -0.62035  -0.61432
 Alpha  occ. eigenvalues --   -0.57398  -0.57056  -0.56927  -0.56355  -0.55815
 Alpha  occ. eigenvalues --   -0.55617  -0.53505  -0.53099  -0.52947  -0.52481
 Alpha  occ. eigenvalues --   -0.51627  -0.51487  -0.50490  -0.50292  -0.49470
 Alpha  occ. eigenvalues --   -0.49356  -0.48721  -0.48053  -0.47857  -0.47102
 Alpha  occ. eigenvalues --   -0.46964  -0.46678  -0.46098  -0.45895  -0.45715
 Alpha  occ. eigenvalues --   -0.45609  -0.45405  -0.45294  -0.45030  -0.44942
 Alpha  occ. eigenvalues --   -0.44838  -0.44680  -0.44446  -0.44305  -0.44018
 Alpha  occ. eigenvalues --   -0.43859  -0.43607  -0.43594  -0.43349  -0.43255
 Alpha  occ. eigenvalues --   -0.43108  -0.42930  -0.42896  -0.42685  -0.42611
 Alpha  occ. eigenvalues --   -0.41948  -0.41923  -0.41527  -0.41294  -0.41165
 Alpha  occ. eigenvalues --   -0.40815  -0.40603  -0.40260  -0.39963  -0.39639
 Alpha  occ. eigenvalues --   -0.39482  -0.39323  -0.38683  -0.38444  -0.38395
 Alpha  occ. eigenvalues --   -0.38227  -0.38068  -0.37980  -0.37831  -0.37805
 Alpha  occ. eigenvalues --   -0.37623  -0.37542  -0.37228  -0.36770  -0.36635
 Alpha  occ. eigenvalues --   -0.36526  -0.36422  -0.36158  -0.35981  -0.35831
 Alpha  occ. eigenvalues --   -0.35587  -0.35385  -0.35255  -0.34881  -0.34693
 Alpha  occ. eigenvalues --   -0.34381  -0.34280  -0.34158  -0.33855  -0.33760
 Alpha  occ. eigenvalues --   -0.33545  -0.33356  -0.33203  -0.32788  -0.32670
 Alpha  occ. eigenvalues --   -0.32518  -0.32378  -0.32089  -0.31995  -0.31748
 Alpha  occ. eigenvalues --   -0.31391  -0.31100  -0.30098  -0.29876  -0.29812
 Alpha  occ. eigenvalues --   -0.29088  -0.28921  -0.27766  -0.27516  -0.27348
 Alpha  occ. eigenvalues --   -0.27054  -0.26549  -0.26344  -0.26226  -0.25887
 Alpha  occ. eigenvalues --   -0.23985  -0.22496  -0.21676  -0.20938  -0.20696
 Alpha  occ. eigenvalues --   -0.19565  -0.14344
 Alpha virt. eigenvalues --   -0.03839  -0.03740  -0.01723  -0.01499   0.00296
 Alpha virt. eigenvalues --    0.00738   0.01492   0.01925   0.02307   0.02421
 Alpha virt. eigenvalues --    0.02808   0.02917   0.03402   0.04044   0.04550

  Beta  occ. eigenvalues --  -77.25462 -77.23322 -19.26253 -19.26033 -19.16971
  Beta  occ. eigenvalues --  -19.16169 -19.13817 -19.13637 -14.44435 -14.43309
  Beta  occ. eigenvalues --  -14.43032 -14.40334 -10.31806 -10.31390 -10.29507
  Beta  occ. eigenvalues --  -10.29381 -10.29019 -10.28749 -10.25800 -10.25770
  Beta  occ. eigenvalues --  -10.25754 -10.25551 -10.25385 -10.25264 -10.25175
  Beta  occ. eigenvalues --  -10.25105 -10.24876 -10.24762 -10.24758 -10.24739
  Beta  occ. eigenvalues --  -10.24547 -10.24516 -10.24413 -10.24369 -10.24134
  Beta  occ. eigenvalues --  -10.24033 -10.21745 -10.21728 -10.21692 -10.21678
  Beta  occ. eigenvalues --  -10.21670 -10.21624 -10.21507 -10.21478 -10.21435
  Beta  occ. eigenvalues --  -10.21428 -10.21189 -10.21188 -10.21152 -10.20951
  Beta  occ. eigenvalues --  -10.20549 -10.20096  -6.63358  -6.61399  -4.77010
  Beta  occ. eigenvalues --   -4.76919  -4.76679  -4.75058  -4.74990  -4.74577
  Beta  occ. eigenvalues --   -3.04318  -3.01820  -1.88200  -1.87090  -1.86610
  Beta  occ. eigenvalues --   -1.86298  -1.84748  -1.81798  -1.12761  -1.12567
  Beta  occ. eigenvalues --   -1.00821  -1.00147  -0.96529  -0.95598  -0.94968
  Beta  occ. eigenvalues --   -0.92991  -0.91956  -0.90838  -0.84995  -0.84595
  Beta  occ. eigenvalues --   -0.83858  -0.83723  -0.83338  -0.82893  -0.82356
  Beta  occ. eigenvalues --   -0.82131  -0.77730  -0.77369  -0.76758  -0.76641
  Beta  occ. eigenvalues --   -0.74080  -0.73686  -0.70396  -0.70274  -0.70158
  Beta  occ. eigenvalues --   -0.69888  -0.69814  -0.69585  -0.69422  -0.69176
  Beta  occ. eigenvalues --   -0.68853  -0.68663  -0.65841  -0.65508  -0.65250
  Beta  occ. eigenvalues --   -0.65111  -0.63870  -0.62741  -0.62034  -0.61213
  Beta  occ. eigenvalues --   -0.57398  -0.57053  -0.56874  -0.56554  -0.55805
  Beta  occ. eigenvalues --   -0.55522  -0.53504  -0.53095  -0.52866  -0.52398
  Beta  occ. eigenvalues --   -0.51624  -0.51326  -0.50397  -0.50261  -0.49468
  Beta  occ. eigenvalues --   -0.49183  -0.48719  -0.47993  -0.47831  -0.47029
  Beta  occ. eigenvalues --   -0.46893  -0.46569  -0.46035  -0.45863  -0.45694
  Beta  occ. eigenvalues --   -0.45455  -0.45322  -0.45236  -0.44985  -0.44819
  Beta  occ. eigenvalues --   -0.44744  -0.44578  -0.44405  -0.44303  -0.44140
  Beta  occ. eigenvalues --   -0.43819  -0.43622  -0.43589  -0.43282  -0.43131
  Beta  occ. eigenvalues --   -0.43109  -0.42909  -0.42849  -0.42645  -0.42578
  Beta  occ. eigenvalues --   -0.41927  -0.41915  -0.41484  -0.41277  -0.41159
  Beta  occ. eigenvalues --   -0.40805  -0.40503  -0.40156  -0.39935  -0.39626
  Beta  occ. eigenvalues --   -0.39400  -0.39299  -0.38645  -0.38417  -0.38377
  Beta  occ. eigenvalues --   -0.38215  -0.38016  -0.37962  -0.37774  -0.37735
  Beta  occ. eigenvalues --   -0.37607  -0.37467  -0.37216  -0.36654  -0.36551
  Beta  occ. eigenvalues --   -0.36451  -0.36233  -0.36093  -0.35945  -0.35807
  Beta  occ. eigenvalues --   -0.35497  -0.35223  -0.35147  -0.34792  -0.34462
  Beta  occ. eigenvalues --   -0.34264  -0.34153  -0.34091  -0.33722  -0.33631
  Beta  occ. eigenvalues --   -0.33492  -0.33286  -0.33117  -0.32711  -0.32474
  Beta  occ. eigenvalues --   -0.32365  -0.31982  -0.31914  -0.31513  -0.31355
  Beta  occ. eigenvalues --   -0.30681  -0.29954  -0.29818  -0.29234  -0.28746
  Beta  occ. eigenvalues --   -0.28495  -0.27672  -0.27502  -0.27046  -0.26519
  Beta  occ. eigenvalues --   -0.26402  -0.26290  -0.25915  -0.25855  -0.23889
  Beta  occ. eigenvalues --   -0.22293  -0.21421  -0.21142  -0.20209  -0.19421
  Beta virt. eigenvalues --   -0.05797  -0.03742  -0.03582  -0.01893  -0.01720
  Beta virt. eigenvalues --   -0.01314   0.00309   0.01232   0.01700   0.01983
  Beta virt. eigenvalues --    0.02571   0.02762   0.02966   0.03419   0.03640

 Mulliken charges and spin densities:
               1          2
     1  H    0.063948  -0.000100
     2  C   -0.138126   0.002691
     3  H    0.064157   0.000139
     4  H    0.113419  -0.000753
     5  H    0.080777   0.001024
     6  O   -0.506545   0.154035
     7  H    0.057874  -0.000126
     8  O   -0.550171   0.014968
     9  H    0.267310  -0.004981
    10  C    0.002689  -0.005124
    11  H    0.047510  -0.000251
    12  H    0.041613   0.006537
    13  C   -0.049669  -0.001094
    14  H    0.092485   0.000382
    15  H    0.061033   0.000078
    16  H    0.067913   0.001264
    17  C   -0.044863   0.000937
    18  H    0.049213   0.000254
    19  H    0.121565   0.000223
    20  Ru   0.094562   1.617673
    21  H    0.085194  -0.000221
    22  N   -0.348543   0.092591
    23  C    0.127359  -0.002187
    24  C   -0.456574   0.023247
    25  H    0.041263  -0.000355
    26  H    0.063206  -0.000201
    27  C   -0.047879  -0.000912
    28  C   -0.449308   0.007203
    29  P    0.190486   0.182934
    30  H    0.054125   0.002949
    31  C    0.004921   0.002823
    32  H    0.083398   0.001889
    33  H    0.058548  -0.000141
    34  H    0.045098   0.004058
    35  C   -0.039633  -0.003045
    36  H    0.042906   0.006036
    37  C   -0.013355  -0.085974
    38  C   -0.000197   0.004185
    39  H    0.094960   0.001400
    40  C   -0.040779  -0.001475
    41  H    0.041386  -0.000307
    42  H    0.053357   0.000268
    43  C    0.012373   0.003023
    44  N   -0.314716   0.006861
    45  C   -0.083299   0.002055
    46  H    0.064307   0.000070
    47  H    0.102090   0.001556
    48  H    0.056322  -0.000303
    49  H    0.058254  -0.000085
    50  C   -0.071369  -0.008128
    51  H    0.056384   0.001307
    52  H    0.054056  -0.000125
    53  C    0.046124  -0.000534
    54  C   -0.033771   0.001377
    55  H    0.064765  -0.000064
    56  H    0.033271   0.000971
    57  H    0.119596   0.000527
    58  H    0.080460  -0.000371
    59  C   -0.037497   0.001647
    60  C    0.084857  -0.002636
    61  H    0.035323   0.000600
    62  H    0.046148   0.000095
    63  O   -0.194722  -0.035053
    64  C   -0.079948   0.000011
    65  H    0.108577   0.001919
    66  O   -0.501780  -0.000592
    67  H    0.076565   0.000226
    68  O   -0.528317   0.000456
    69  H    0.213193  -0.000072
    70  C   -0.031484   0.000010
    71  H    0.049572   0.000090
    72  C   -0.048617   0.001236
    73  H    0.092400  -0.000084
    74  H    0.062152  -0.000102
    75  C   -0.030754  -0.000079
    76  H    0.047940  -0.000010
    77  H    0.130428  -0.000025
    78  Ru   0.118015   0.000444
    79  H    0.106332  -0.000017
    80  N   -0.378002   0.000039
    81  C    0.131840  -0.000002
    82  C   -0.450687   0.000123
    83  H    0.040762  -0.000005
    84  H    0.062965  -0.000000
    85  C   -0.048366   0.000006
    86  C   -0.456506   0.000013
    87  P    0.198300  -0.000049
    88  H    0.070658   0.000001
    89  C   -0.000815  -0.000003
    90  H    0.097945  -0.000004
    91  H    0.101240   0.000001
    92  H    0.049432  -0.000001
    93  C   -0.006515   0.000011
    94  H    0.045353  -0.000002
    95  C   -0.008067  -0.000007
    96  C   -0.002918   0.000079
    97  H    0.064848  -0.000001
    98  C   -0.031190  -0.000002
    99  H    0.044274  -0.000005
   100  H    0.053463  -0.000001
   101  C    0.020365  -0.000012
   102  N   -0.316334   0.000032
   103  C   -0.125692  -0.000000
   104  H    0.062129   0.000000
   105  H    0.056908   0.000001
   106  H    0.060235   0.000000
   107  H    0.066545   0.000001
   108  C   -0.078902   0.000003
   109  H    0.069202  -0.000000
   110  H    0.054234   0.000052
   111  C    0.050200  -0.000009
   112  C   -0.046418   0.000007
   113  H    0.066665   0.000001
   114  H    0.034973   0.000002
   115  H    0.119533  -0.000001
   116  H    0.090916   0.000001
   117  C   -0.044571   0.000007
   118  C    0.074817  -0.000014
   119  H    0.035616  -0.000000
   120  H    0.047055   0.000000
   121  H    0.205803   0.000310
   122  O   -0.187276  -0.000007
   123  H    0.064212  -0.000008
   124  H    0.058926   0.000006
   125  H    0.065085  -0.000002
   126  H    0.081531   0.000804
   127  H    0.086600  -0.000060
   128  H    0.259761  -0.000046
 Sum of Mulliken charges =  -0.00000   2.00000

 Dipole moment (field-independent basis, Debye):
    X=              2.4023    Y=              1.8301    Z=              6.9579  Tot=              7.5851
 Quadrupole moment (field-independent basis, Debye-Ang):
   XX=           -257.4216   YY=           -362.9647   ZZ=           -347.4287
   XY=            -23.4414   XZ=            -19.4672   YZ=            -15.3669

 Normal termination of Gaussian 16 at Fri Mar  6 11:10:04 2020.
