 Gaussian 16, Revision A.03,
 Gaussian 16:  ES64L-G16RevA.03 25-Dec-2016

 ----------------------------------------------------------------------
 # genecp pbe1pbe EmpiricalDispersion=GD3BJ scrf=(SMD,solvent=water) ge
 om=allcheck
 ----------------------------------------------------------------------

 Structure from the checkpoint file:  "/scratch/js1212.579947/F-R2-R2-Down-GPOF-Disp.chk"
 -------------------
 Title Card Required
 -------------------
 Charge =  0 Multiplicity = 3

                         Standard orientation:
 ---------------------------------------------------------------------
 Center     Atomic      Atomic             Coordinates (Angstroms)
 Number     Number       Type             X           Y           Z
 ---------------------------------------------------------------------
      1          1           0        0.318629   -4.295646   -0.543675
      2          6           0       -0.747820   -4.056201   -0.660069
      3          1           0       -1.256655   -4.958125   -1.034758
      4          1           0       -0.834244   -3.259024   -1.413830
      5          1           0       -0.898634    2.854726    0.604796
      6          8           0       -0.810905   -0.465198   -1.742470
      7          1           0       -1.038049    3.356020   -1.860629
      8          8           0       -1.244852   -0.420662    1.013479
      9          1           0       -0.197308   -0.010362   -1.120691
     10          6           0       -1.293049   -3.578155    0.668985
     11          1           0       -1.522752    4.120178    1.696530
     12          1           0       -1.264909   -4.400870    1.414793
     13          6           0       -1.716738    3.578785    0.754412
     14          1           0       -1.156040    1.734556   -2.602683
     15          1           0       -1.688684    4.320262   -0.057724
     16          1           0       -0.658520   -2.764395    1.049535
     17          6           0       -1.586513    2.748497   -2.594065
     18          1           0       -1.437883    3.209069   -3.585703
     19          1           0       -2.249120   -1.890793    2.237443
     20         44           0       -2.423612   -0.744114   -0.659792
     21          1           0       -2.346004    1.114246    1.953356
     22          7           0       -2.643890   -3.019255    0.569418
     23          6           0       -3.080839   -2.504175    1.851215
     24          6           0       -3.072952    2.876405    0.857815
     25          1           0       -2.705491    2.566653    2.959079
     26          1           0       -3.189953    4.762397   -1.589967
     27          6           0       -3.036074    1.964444    2.094615
     28          6           0       -3.088357    2.684720   -2.286095
     29         15           0       -3.248313    1.722850   -0.654505
     30          1           0       -3.317032   -3.296034    2.589221
     31          6           0       -3.702082    4.081833   -2.283926
     32          1           0       -3.314527   -4.050858   -1.106160
     33          1           0       -2.957813   -5.856586    0.634870
     34          1           0       -3.612354    4.517044   -3.294436
     35          6           0       -3.629653   -3.895926   -0.064664
     36          1           0       -4.025180    4.455540    1.971487
     37          6           0       -3.364562   -1.341200   -2.125814
     38          6           0       -4.196496    3.896285    1.034963
     39          1           0       -3.373464    0.823304   -3.404628
     40          6           0       -3.750142    1.854771   -3.388793
     41          1           0       -4.251574    4.628112    0.219444
     42          1           0       -3.510936    2.312809   -4.362971
     43          6           0       -4.257807   -1.586999    1.699251
     44          7           0       -4.217364   -0.729026    0.665000
     45          6           0       -3.868783   -5.239424    0.612862
     46          1           0       -4.032735    1.568622    2.340577
     47          1           0       -4.575004   -3.333171   -0.122468
     48          1           0       -4.772516    4.064063   -2.026863
     49          1           0       -4.225926   -5.128222    1.648534
     50          6           0       -5.035214    1.187020   -0.585440
     51          1           0       -4.636879   -5.801154    0.059865
     52          1           0       -5.179723    3.410232    1.131399
     53          6           0       -5.195056    0.187677    0.519194
     54          6           0       -5.312785   -1.584488    2.608643
     55          1           0       -4.846809    1.833788   -3.300163
     56          1           0       -5.312137   -2.302252    3.429902
     57          1           0       -5.222784    0.687774   -1.548633
     58          1           0       -5.759609    2.006739   -0.475893
     59          6           0       -6.281100    0.233611    1.392987
     60          6           0       -6.344234   -0.667199    2.449041
     61          1           0       -7.058580    0.983105    1.241088
     62          1           0       -7.185334   -0.648356    3.144686
     63          8           0       -3.952392   -1.781036   -3.031273
     64          6           0        0.466339    0.929436    4.499277
     65          1           0        1.051193   -1.869142   -1.773868
     66          8           0        0.682454    1.251874   -0.045348
     67          1           0        1.175041    0.580343   -3.038986
     68          8           0        1.590544   -1.203805    0.910531
     69          1           0        0.688476    1.875126   -0.777947
     70          6           0        0.801494    0.869993    3.018107
     71          1           0        1.583717   -3.349780   -2.614697
     72          6           0        1.791469   -2.276005   -2.475568
     73          1           0        1.809037    2.093880   -2.354490
     74          1           0        1.630514   -1.784649   -3.445949
     75          6           0        1.946250    1.356467   -3.157612
     76          1           0        1.775846    1.870546   -4.118057
     77          1           0        2.267591   -1.133798    2.938735
     78         44           0        2.566844    0.544289    0.426329
     79          1           0        2.699202   -2.516439    0.116572
     80          7           0        2.239603    0.908721    2.671094
     81          6           0        2.921615   -0.285782    3.205233
     82          6           0        3.220671   -2.109622   -1.963572
     83          1           0        3.149697   -3.953076   -0.873154
     84          1           0        2.922987   -0.735976   -4.640673
     85          6           0        3.387403   -2.897124   -0.657259
     86          6           0        3.373531    0.797440   -3.128931
     87         15           0        3.472210   -0.271037   -1.544169
     88          1           0        3.060769   -0.225422    4.298109
     89          6           0        3.649803    0.060490   -4.438837
     90          1           0        3.921375    2.136849    2.745998
     91          1           0        1.867474    3.419286    1.765047
     92          1           0        3.571273    0.790154   -5.262182
     93          6           0        2.905718    2.129146    3.170400
     94          1           0        4.104092   -3.776164   -2.971414
     95          6           0        3.376194    2.162881    0.151029
     96          6           0        4.223653   -2.680009   -2.971800
     97          1           0        4.282150    2.546754   -2.131567
     98          6           0        4.368049    1.958388   -3.052408
     99          1           0        4.065183   -2.339100   -3.999294
    100          1           0        4.164473    2.641133   -3.894278
    101          6           0        4.232120   -0.552436    2.529836
    102          7           0        4.260661   -0.293475    1.208122
    103          6           0        2.178371    3.412709    2.818299
    104          1           0        4.427331   -2.871955   -0.293508
    105          1           0        3.024869    2.058294    4.269256
    106          1           0        4.662970   -0.363970   -4.473383
    107          1           0        1.280958    3.558336    3.436426
    108          6           0        5.264881   -0.215905   -0.987451
    109          1           0        2.845974    4.270260    2.985117
    110          1           0        5.269863   -2.478526   -2.693550
    111          6           0        5.351938   -0.573172    0.465053
    112          6           0        5.335747   -1.106216    3.169245
    113          1           0        5.408719    1.615451   -3.160353
    114          1           0        5.297137   -1.300721    4.241474
    115          1           0        5.576221    0.834815   -1.101758
    116          1           0        5.947601   -0.829934   -1.591407
    117          6           0        6.476942   -1.145000    1.054226
    118          6           0        6.468753   -1.410955    2.419899
    119          1           0        7.348751   -1.374134    0.440854
    120          1           0        7.344356   -1.852338    2.899147
    121          1           0        0.634958   -1.055552    0.775719
    122          8           0        3.872459    3.213005    0.030621
    123          1           0       -0.628246    0.888162    4.605261
    124          1           0        0.808800    1.854731    4.988859
    125          1           0        0.877160    0.075454    5.060026
    126          1           0        0.399951   -0.046467    2.569434
    127          1           0        0.326003    1.695344    2.475193
    128          1           0       -0.663250    0.321722    0.763618
 ---------------------------------------------------------------------

 SCF Done:  E(UPBE1PBE) =  -3109.98584430     A.U. after   23 cycles

 Alpha virt. eigenvalues --    2.88806   2.88901   2.89001   2.89242   2.89465
 Alpha virt. eigenvalues --    2.89934   2.90129   2.90421   2.90610   2.91108
 Alpha virt. eigenvalues --    2.91407   2.91712   2.92161   2.92339   2.92618

  Beta  occ. eigenvalues --  -77.25463 -77.23370 -19.24868 -19.24674 -19.15450
  Beta  occ. eigenvalues --  -19.14605 -19.12323 -19.12251 -14.43368 -14.42222
  Beta  occ. eigenvalues --  -14.42134 -14.39435 -10.31042 -10.30643 -10.28768
  Beta  occ. eigenvalues --  -10.28648 -10.28274 -10.28009 -10.25050 -10.25030
  Beta  occ. eigenvalues --  -10.24955 -10.24931 -10.24689 -10.24612 -10.24589
  Beta  occ. eigenvalues --  -10.24477 -10.24397 -10.23944 -10.23942 -10.23940
  Beta  occ. eigenvalues --  -10.23718 -10.23699 -10.23579 -10.23571 -10.23319
  Beta  occ. eigenvalues --  -10.23266 -10.20753 -10.20709 -10.20695 -10.20693
  Beta  occ. eigenvalues --  -10.20682 -10.20657 -10.20488 -10.20461 -10.20446
  Beta  occ. eigenvalues --  -10.20441 -10.20223 -10.20220 -10.20139 -10.19989
  Beta  occ. eigenvalues --  -10.19618 -10.19194  -6.62846  -6.60956  -4.76524
  Beta  occ. eigenvalues --   -4.76435  -4.76203  -4.74630  -4.74564  -4.74186
  Beta  occ. eigenvalues --   -3.04462  -3.02008  -1.88326  -1.87200  -1.86745
  Beta  occ. eigenvalues --   -1.86440  -1.84875  -1.82024  -1.12428  -1.12276
  Beta  occ. eigenvalues --   -1.00586  -0.99938  -0.96414  -0.95484  -0.94985
  Beta  occ. eigenvalues --   -0.92972  -0.92117  -0.91014  -0.84916  -0.84538
  Beta  occ. eigenvalues --   -0.83697  -0.83571  -0.83230  -0.82799  -0.82349
  Beta  occ. eigenvalues --   -0.82127  -0.77729  -0.77371  -0.76725  -0.76602
  Beta  occ. eigenvalues --   -0.73991  -0.73611  -0.70419  -0.70267  -0.70189
  Beta  occ. eigenvalues --   -0.69905  -0.69843  -0.69582  -0.69438  -0.69213
  Beta  occ. eigenvalues --   -0.68909  -0.68723  -0.65737  -0.65525  -0.65295
  Beta  occ. eigenvalues --   -0.65034  -0.63808  -0.62698  -0.61972  -0.61177
  Beta  occ. eigenvalues --   -0.57463  -0.57043  -0.56928  -0.56588  -0.55867
  Beta  occ. eigenvalues --   -0.55591  -0.53567  -0.53146  -0.52931  -0.52470
  Beta  occ. eigenvalues --   -0.51701  -0.51420  -0.50523  -0.50380  -0.49555
  Beta  occ. eigenvalues --   -0.49304  -0.48828  -0.48111  -0.47956  -0.47117
  Beta  occ. eigenvalues --   -0.47021  -0.46703  -0.46151  -0.45963  -0.45815
  Beta  occ. eigenvalues --   -0.45593  -0.45470  -0.45384  -0.45131  -0.44990
  Beta  occ. eigenvalues --   -0.44873  -0.44718  -0.44549  -0.44440  -0.44330
  Beta  occ. eigenvalues --   -0.43972  -0.43800  -0.43765  -0.43433  -0.43290
  Beta  occ. eigenvalues --   -0.43237  -0.43038  -0.42996  -0.42790  -0.42734
  Beta  occ. eigenvalues --   -0.42040  -0.42016  -0.41628  -0.41424  -0.41309
  Beta  occ. eigenvalues --   -0.40963  -0.40673  -0.40330  -0.40130  -0.39819
  Beta  occ. eigenvalues --   -0.39581  -0.39466  -0.38827  -0.38568  -0.38523
  Beta  occ. eigenvalues --   -0.38362  -0.38190  -0.38107  -0.37968  -0.37916
  Beta  occ. eigenvalues --   -0.37801  -0.37633  -0.37379  -0.36811  -0.36687
  Beta  occ. eigenvalues --   -0.36614  -0.36364  -0.36255  -0.36118  -0.35956
  Beta  occ. eigenvalues --   -0.35619  -0.35367  -0.35300  -0.34917  -0.34619
  Beta  occ. eigenvalues --   -0.34439  -0.34304  -0.34235  -0.33868  -0.33798
  Beta  occ. eigenvalues --   -0.33645  -0.33451  -0.33285  -0.32851  -0.32639
  Beta  occ. eigenvalues --   -0.32506  -0.32100  -0.32031  -0.31635  -0.31461
  Beta  occ. eigenvalues --   -0.30842  -0.30219  -0.29941  -0.29470  -0.28886
  Beta  occ. eigenvalues --   -0.28699  -0.27940  -0.27805  -0.27286  -0.26737
  Beta  occ. eigenvalues --   -0.26587  -0.26408  -0.26107  -0.26100  -0.24064
  Beta  occ. eigenvalues --   -0.22434  -0.21613  -0.21478  -0.20477  -0.19640
  Beta virt. eigenvalues --   -0.05969  -0.04023  -0.03857  -0.02155  -0.02020
  Beta virt. eigenvalues --   -0.01576   0.00065   0.00926   0.01408   0.01656
  Beta virt. eigenvalues --    0.02250   0.02330   0.02640   0.03006   0.03125

 Mulliken charges and spin densities:
               1          2
     1  H    0.123652  -0.000187
     2  C   -0.360518   0.002050
     3  H    0.117169   0.000290
     4  H    0.127038  -0.001256
     5  H    0.109766   0.001560
     6  O   -0.740441   0.139498
     7  H    0.125317  -0.000298
     8  O   -0.820041   0.012747
     9  H    0.301949  -0.002239
    10  C   -0.118625  -0.002877
    11  H    0.107035  -0.000484
    12  H    0.104853   0.006505
    13  C   -0.368932  -0.001063
    14  H    0.118846   0.001773
    15  H    0.124939   0.000277
    16  H    0.127314   0.001277
    17  C   -0.347782   0.000972
    18  H    0.107785   0.000031
    19  H    0.167023   0.000262
    20  Ru   0.925731   1.691588
    21  H    0.132448  -0.001565
    22  N   -0.183179   0.080941
    23  C   -0.134720   0.000520
    24  C    0.031274   0.021212
    25  H    0.103498  -0.000343
    26  H    0.118994  -0.000393
    27  C   -0.380431  -0.000417
    28  C    0.014592   0.005253
    29  P    0.089264   0.167396
    30  H    0.117051   0.002860
    31  C   -0.334100   0.003366
    32  H    0.122596   0.002011
    33  H    0.108812  -0.000144
    34  H    0.106038   0.004265
    35  C   -0.115759  -0.003001
    36  H    0.105551   0.006482
    37  C   -0.150435  -0.114651
    38  C   -0.335119   0.004695
    39  H    0.137091   0.000663
    40  C   -0.360911  -0.001031
    41  H    0.118387  -0.000665
    42  H    0.110378   0.000537
    43  C    0.119821  -0.000552
    44  N   -0.214517   0.010203
    45  C   -0.326477   0.002450
    46  H    0.120077   0.000060
    47  H    0.123374   0.001633
    48  H    0.114382  -0.000599
    49  H    0.108367  -0.000116
    50  C   -0.242486  -0.008766
    51  H    0.113337   0.001299
    52  H    0.111566  -0.000336
    53  C    0.055136  -0.005580
    54  C   -0.143443   0.001523
    55  H    0.117287  -0.000215
    56  H    0.158779   0.001271
    57  H    0.179059   0.000727
    58  H    0.138507  -0.000551
    59  C   -0.121203   0.001710
    60  C   -0.139862  -0.002621
    61  H    0.161188   0.000765
    62  H    0.162736   0.000111
    63  O   -0.300576  -0.036294
    64  C   -0.337561   0.000010
    65  H    0.108263   0.003018
    66  O   -0.762413  -0.000557
    67  H    0.124681   0.000396
    68  O   -0.788373   0.000417
    69  H    0.287584   0.000020
    70  C   -0.125276   0.000011
    71  H    0.110810   0.000165
    72  C   -0.364037   0.001140
    73  H    0.127027  -0.000035
    74  H    0.132105  -0.000035
    75  C   -0.345811  -0.000359
    76  H    0.114873   0.000024
    77  H    0.179780  -0.000017
    78  Ru   0.979408   0.000164
    79  H    0.161993  -0.000024
    80  N   -0.193634   0.000048
    81  C   -0.117918  -0.000016
    82  C    0.018070   0.000200
    83  H    0.103648  -0.000006
    84  H    0.121070   0.000002
    85  C   -0.413033   0.000014
    86  C    0.011016   0.000033
    87  P    0.061788  -0.000177
    88  H    0.125664   0.000001
    89  C   -0.337850  -0.000002
    90  H    0.141308  -0.000003
    91  H    0.121740  -0.000005
    92  H    0.108508  -0.000001
    93  C   -0.125626   0.000009
    94  H    0.108807  -0.000007
    95  C   -0.183115  -0.000001
    96  C   -0.336397   0.000084
    97  H    0.141254  -0.000005
    98  C   -0.370338  -0.000005
    99  H    0.119042  -0.000008
   100  H    0.109392  -0.000001
   101  C    0.082460  -0.000004
   102  N   -0.127386   0.000035
   103  C   -0.347473   0.000004
   104  H    0.117487  -0.000004
   105  H    0.118988   0.000002
   106  H    0.111989   0.000000
   107  H    0.120574   0.000004
   108  C   -0.233913   0.000004
   109  H    0.127136  -0.000000
   110  H    0.116151   0.000060
   111  C    0.046322  -0.000008
   112  C   -0.155515   0.000004
   113  H    0.114475   0.000001
   114  H    0.161468   0.000002
   115  H    0.167947  -0.000001
   116  H    0.146507   0.000002
   117  C   -0.130543   0.000006
   118  C   -0.136900  -0.000010
   119  H    0.164187  -0.000000
   120  H    0.163320   0.000000
   121  H    0.297267  -0.000054
   122  O   -0.302844  -0.000005
   123  H    0.122327  -0.000012
   124  H    0.109743   0.000012
   125  H    0.113785   0.000000
   126  H    0.135246   0.000852
   127  H    0.124136  -0.000094
   128  H    0.308161   0.000163
 Sum of Mulliken charges =  -0.00000   2.00000

 Dipole moment (field-independent basis, Debye):
    X=              2.4216    Y=              1.7987    Z=              7.2026  Tot=              7.8087
 Quadrupole moment (field-independent basis, Debye-Ang):
   XX=           -260.5686   YY=           -367.0371   ZZ=           -350.9037
   XY=            -24.2539   XZ=            -19.8435   YZ=            -15.5452

 Normal termination of Gaussian 16 at Fri Mar  6 05:22:10 2020.
