 Gaussian 16, Revision A.03,
 Gaussian 16:  ES64L-G16RevA.03 25-Dec-2016

 -------------------------------------------------------------------
 # genecp pbe1pbe EmpiricalDispersion=GD3BJ scrf=(SMD,solvent=water)
 -------------------------------------------------------------------

 -------------------
 Title card Required
 -------------------
 Symbolic Z-matrix:
 Charge =  0 Multiplicity = 3

                         Standard orientation:
 ---------------------------------------------------------------------
 Center     Atomic      Atomic             Coordinates (Angstroms)
 Number     Number       Type             X           Y           Z
 ---------------------------------------------------------------------
      1          1           0       -3.384941   -3.311795    1.827368
      2          6           0       -2.955116   -2.792765    0.958301
      3          1           0       -3.382083   -3.248524    0.052180
      4          1           0       -1.866432   -2.959160    0.961634
      5          1           0        1.908605   -0.678401    2.707999
      6          8           0       -0.534560   -0.353579    2.077554
      7          1           0        3.019418   -2.523575    0.850849
      8          8           0       -0.353942   -1.523344    2.635737
      9          6           0       -3.250426   -1.312809    1.061326
     10          1           0        3.095220    0.448483    3.415320
     11          1           0       -4.340391   -1.124526    1.056180
     12          6           0        2.809646   -0.087052    2.494212
     13          1           0        1.905550   -2.896794   -0.473278
     14          1           0        3.630511   -0.777747    2.249481
     15          1           0       -2.864865   -0.918114    2.009374
     16          6           0        2.921905   -2.547568   -0.244580
     17          1           0        3.648580   -3.278771   -0.636685
     18          1           0       -2.664078    1.086162    1.355981
     19         44           0       -0.318373   -0.688278   -0.005040
     20          1           0        0.531857    1.449496    2.041821
     21          7           0       -2.605167   -0.516912   -0.006354
     22          6           0       -2.833548    0.920763    0.276209
     23          6           0        2.565327    0.928765    1.375891
     24          1           0        1.840353    2.419427    2.745009
     25          1           0        4.913817   -0.821381    0.450576
     26          6           0        1.490195    1.929644    1.821292
     27          6           0        3.195957   -1.176047   -0.872435
     28         15           0        1.872787   -0.009108   -0.135397
     29          1           0       -3.880070    1.206201    0.076266
     30          6           0        4.651119   -0.789507   -0.615011
     31          1           0       -2.771246   -1.868644   -1.596649
     32          1           0       -5.170705   -1.527659   -0.947827
     33          1           0        5.298621   -1.519011   -1.130086
     34          6           0       -3.124027   -0.858378   -1.355924
     35          1           0        4.015435    2.389166    1.985780
     36          6           0       -0.231829   -1.579958   -1.593198
     37          6           0        3.835909    1.742312    1.110811
     38          1           0        1.975713   -1.478426   -2.688597
     39          6           0        3.009002   -1.265656   -2.389640
     40          1           0        4.730440    1.127399    0.974445
     41          1           0        3.632453   -2.092886   -2.767519
     42          6           0       -1.899057    1.813669   -0.488194
     43          7           0       -0.649611    1.340727   -0.615571
     44          6           0       -4.630792   -0.785982   -1.554587
     45          1           0        1.331918    2.722724    1.074852
     46          1           0       -2.615587   -0.182684   -2.059672
     47          1           0        4.898586    0.205390   -1.012069
     48          1           0       -5.050486    0.206945   -1.334349
     49          6           0        1.643572    1.370165   -1.392868
     50          1           0       -4.852886   -1.004236   -2.609843
     51          1           0        3.736362    2.408884    0.240340
     52          6           0        0.312834    2.051265   -1.229854
     53          6           0       -2.241777    3.067697   -0.982064
     54          1           0        3.346855   -0.348666   -2.896546
     55          1           0       -3.261606    3.439383   -0.874586
     56          1           0        1.629855    0.858849   -2.369028
     57          1           0        2.466228    2.100012   -1.420163
     58          6           0        0.036432    3.326191   -1.721518
     59          6           0       -1.253262    3.836248   -1.594092
     60          1           0        0.822915    3.905644   -2.207035
     61          1           0       -1.490032    4.829320   -1.980224
     62          8           0       -0.245414   -2.205834   -2.583526
     63          8           0       -2.157635    1.346001    3.375445
     64          1           0       -1.458325    0.731271    3.053768
     65          1           0       -2.605474    0.828458    4.054957
 ---------------------------------------------------------------------

 SCF Done:  E(UPBE1PBE) =  -1630.04901205     A.U. after   25 cycles

 The electronic state is 3-A.
 Alpha  occ. eigenvalues --  -77.25050 -19.26186 -19.23663 -19.23389 -19.18873
 Alpha  occ. eigenvalues --  -14.42551 -14.42057 -10.29834 -10.28397 -10.27920
 Alpha  occ. eigenvalues --  -10.25122 -10.24874 -10.24767 -10.24744 -10.24557
 Alpha  occ. eigenvalues --  -10.24315 -10.23759 -10.23740 -10.23295 -10.20763
 Alpha  occ. eigenvalues --  -10.20691 -10.20688 -10.20582 -10.20565 -10.20522
 Alpha  occ. eigenvalues --  -10.20498 -10.20302  -6.62411  -4.76088  -4.76016
 Alpha  occ. eigenvalues --   -4.75752  -3.03237  -1.87620  -1.86124  -1.85770
 Alpha  occ. eigenvalues --   -1.16637  -1.11034  -1.01982  -1.00055  -0.96360
 Alpha  occ. eigenvalues --   -0.84765  -0.83323  -0.82922  -0.82494  -0.80402
 Alpha  occ. eigenvalues --   -0.77915  -0.76709  -0.73807  -0.70406  -0.70211
 Alpha  occ. eigenvalues --   -0.69913  -0.69667  -0.69080  -0.65998  -0.65411
 Alpha  occ. eigenvalues --   -0.62969  -0.61670  -0.57761  -0.56079  -0.55873
 Alpha  occ. eigenvalues --   -0.53293  -0.53165  -0.52753  -0.51712  -0.51008
 Alpha  occ. eigenvalues --   -0.50216  -0.48543  -0.48103  -0.47537  -0.47360
 Alpha  occ. eigenvalues --   -0.46044  -0.45707  -0.45508  -0.45116  -0.44844
 Alpha  occ. eigenvalues --   -0.44117  -0.43943  -0.43706  -0.43528  -0.43225
 Alpha  occ. eigenvalues --   -0.43162  -0.42550  -0.42322  -0.41884  -0.41370
 Alpha  occ. eigenvalues --   -0.40907  -0.40052  -0.39743  -0.39223  -0.38705
 Alpha  occ. eigenvalues --   -0.38510  -0.38328  -0.37822  -0.37646  -0.36681
 Alpha  occ. eigenvalues --   -0.36637  -0.36345  -0.36247  -0.35260  -0.34725
 Alpha  occ. eigenvalues --   -0.34346  -0.34286  -0.33845  -0.33441  -0.32869
 Alpha  occ. eigenvalues --   -0.32292  -0.31845  -0.31476  -0.31192  -0.29722
 Alpha  occ. eigenvalues --   -0.27517  -0.26822  -0.26216  -0.24536  -0.23307
 Alpha  occ. eigenvalues --   -0.21831  -0.20713  -0.14846
 Alpha virt. eigenvalues --   -0.03671  -0.01810  -0.00247   0.01050   0.02079
 Alpha virt. eigenvalues --    0.02996   0.03115   0.03360   0.04381   0.06481
 Alpha virt. eigenvalues --    0.07329   0.07416   0.07681   0.07978   0.08263

  Beta  occ. eigenvalues --  -77.25057 -19.24753 -19.23312 -19.21937 -19.18871
  Beta  occ. eigenvalues --  -14.42540 -14.41849 -10.29843 -10.28395 -10.27910
  Beta  occ. eigenvalues --  -10.25115 -10.24876 -10.24757 -10.24750 -10.24555
  Beta  occ. eigenvalues --  -10.24319 -10.23754 -10.23740 -10.23295 -10.20763
  Beta  occ. eigenvalues --  -10.20693 -10.20687 -10.20560 -10.20547 -10.20522
  Beta  occ. eigenvalues --  -10.20499 -10.20288  -6.62420  -4.76090  -4.76022
  Beta  occ. eigenvalues --   -4.75775  -3.00692  -1.85396  -1.84129  -1.81314
  Beta  occ. eigenvalues --   -1.13384  -1.10881  -1.01968  -0.99847  -0.96323
  Beta  occ. eigenvalues --   -0.84755  -0.83241  -0.82888  -0.82472  -0.77905
  Beta  occ. eigenvalues --   -0.76733  -0.75707  -0.73787  -0.70390  -0.70188
  Beta  occ. eigenvalues --   -0.69890  -0.69645  -0.69054  -0.65971  -0.65360
  Beta  occ. eigenvalues --   -0.62887  -0.61623  -0.57728  -0.55991  -0.55681
  Beta  occ. eigenvalues --   -0.53094  -0.53020  -0.52621  -0.51617  -0.50888
  Beta  occ. eigenvalues --   -0.49806  -0.48376  -0.47460  -0.46830  -0.45985
  Beta  occ. eigenvalues --   -0.45674  -0.45459  -0.44983  -0.44785  -0.44061
  Beta  occ. eigenvalues --   -0.43798  -0.43569  -0.43468  -0.43140  -0.42849
  Beta  occ. eigenvalues --   -0.42305  -0.42094  -0.41744  -0.41418  -0.40832
  Beta  occ. eigenvalues --   -0.40020  -0.39677  -0.39282  -0.38675  -0.38596
  Beta  occ. eigenvalues --   -0.38292  -0.37757  -0.37599  -0.37507  -0.36618
  Beta  occ. eigenvalues --   -0.36523  -0.36288  -0.36183  -0.35211  -0.34617
  Beta  occ. eigenvalues --   -0.34163  -0.34076  -0.33262  -0.33161  -0.32771
  Beta  occ. eigenvalues --   -0.32138  -0.31661  -0.31119  -0.30982  -0.29544
  Beta  occ. eigenvalues --   -0.26856  -0.26424  -0.23130  -0.22461  -0.20442
  Beta  occ. eigenvalues --   -0.19509
  Beta virt. eigenvalues --   -0.07069  -0.04176  -0.01839  -0.01539   0.00919
  Beta virt. eigenvalues --    0.01199   0.02719   0.03130   0.03375   0.03844
  Beta virt. eigenvalues --    0.05194   0.06655   0.07349   0.07508   0.07833

 Mulliken charges and spin densities:
               1          2
     1  H    0.120863   0.001335
     2  C   -0.340867   0.004819
     3  H    0.116943   0.000959
     4  H    0.128884   0.002601
     5  H    0.130104   0.002290
     6  O   -0.329770   0.440350
     7  H    0.120540  -0.000798
     8  O   -0.295263   0.571499
     9  C   -0.115714  -0.001374
    10  H    0.106117   0.000242
    11  H    0.118112  -0.000759
    12  C   -0.355321  -0.001509
    13  H    0.139233  -0.004264
    14  H    0.122265  -0.000115
    15  H    0.126488  -0.000572
    16  C   -0.341543   0.003989
    17  H    0.108755   0.001977
    18  H    0.149220   0.000035
    19  Ru   0.722552   0.892892
    20  H    0.148033  -0.000605
    21  N   -0.252968  -0.001041
    22  C   -0.129353   0.006760
    23  C    0.005814  -0.001673
    24  H    0.110451   0.000335
    25  H    0.118710   0.000037
    26  C   -0.377324   0.006944
    27  C    0.008130  -0.001800
    28  P    0.048538  -0.012029
    29  H    0.127252  -0.000858
    30  C   -0.334253  -0.000599
    31  H    0.131561  -0.000664
    32  H    0.110910  -0.000011
    33  H    0.107782   0.000037
    34  C   -0.124453  -0.001162
    35  H    0.107852  -0.000313
    36  C   -0.212658   0.006479
    37  C   -0.334522  -0.000523
    38  H    0.136964   0.000235
    39  C   -0.357531  -0.000160
    40  H    0.119946   0.000091
    41  H    0.106590  -0.000079
    42  C    0.131116   0.002527
    43  N   -0.208600   0.051671
    44  C   -0.323271   0.000054
    45  H    0.120109   0.000205
    46  H    0.143328   0.000019
    47  H    0.112058   0.000097
    48  H    0.110340   0.000036
    49  C   -0.222028  -0.000631
    50  H    0.117204   0.000122
    51  H    0.116653   0.000147
    52  C    0.053786   0.005768
    53  C   -0.170221   0.000405
    54  H    0.110950  -0.000028
    55  H    0.160535   0.001753
    56  H    0.159831  -0.000319
    57  H    0.145766  -0.000931
    58  C   -0.147135  -0.000345
    59  C   -0.137566   0.005863
    60  H    0.161366   0.001295
    61  H    0.160974  -0.000430
    62  O   -0.318249   0.021412
    63  O   -0.568837   0.000589
    64  H    0.320474  -0.002188
    65  H    0.274348  -0.000092
 Sum of Mulliken charges =  -0.00000   2.00000

 Dipole moment (field-independent basis, Debye):
    X=             -0.1967    Y=              7.3950    Z=             -4.9846  Tot=              8.9203
 Quadrupole moment (field-independent basis, Debye-Ang):
   XX=           -156.1373   YY=           -193.3436   ZZ=           -209.4922
   XY=              3.0096   XZ=             -0.7297   YZ=            -14.1639

 Normal termination of Gaussian 16 at Thu Jul 23 00:19:16 2020.
