 Gaussian 16, Revision A.03,
 Gaussian 16:  ES64L-G16RevA.03 25-Dec-2016

 ----------------------------------------------------------------------
 # genecp pbe1pbe EmpiricalDispersion=GD3BJ scrf=(SMD,solvent=water) ge
 om=allcheck
 ----------------------------------------------------------------------

 Structure from the checkpoint file:  "/scratch/js1212.738051/0-Full-Planar-H2O-GP-SMD.chk"
 -------------------
 Title Card Required
 -------------------
 Charge =  0 Multiplicity = 1

                         Standard orientation:
 ---------------------------------------------------------------------
 Center     Atomic      Atomic             Coordinates (Angstroms)
 Number     Number       Type             X           Y           Z
 ---------------------------------------------------------------------
      1          7           0       -0.791329    1.424146    0.016833
      2          6           0       -2.023798    1.841241    0.370166
      3          6           0        0.131075    2.309282   -0.429402
      4          6           0       -2.405847    3.171041    0.252704
      5          6           0       -1.469975    4.095739   -0.208329
      6          6           0       -0.189407    3.661594   -0.540372
      7          6           0       -2.879068    0.775870    0.988636
      8          1           0       -3.414942    3.477206    0.531356
      9          1           0       -1.737106    5.149242   -0.307175
     10          1           0        0.563649    4.363708   -0.899992
     11          6           0        1.463515    1.744174   -0.812104
     12          7           0       -2.652117   -0.554526    0.392542
     13          1           0       -3.944710    1.064784    0.964883
     14          1           0       -2.590516    0.700300    2.049898
     15          1           0        1.445453    1.537490   -1.895688
     16         15           0        1.708323    0.051418   -0.030240
     17          1           0        2.272738    2.466795   -0.624448
     18         44           0       -0.405995   -0.620888    0.153611
     19          6           0       -3.273633   -0.643575   -0.952188
     20          6           0        2.978447   -0.747827   -1.200115
     21          6           0       -3.189494   -1.560642    1.339792
     22          6           0        2.534104    0.453465    1.647015
     23          6           0        2.194575   -1.274035   -2.406099
     24          6           0        3.639321   -1.939315   -0.503682
     25          6           0        4.045271    0.227643   -1.702664
     26          6           0        1.631383    1.490498    2.323737
     27          6           0        3.952806    1.010181    1.575784
     28          6           0        2.492799   -0.817267    2.500755
     29          1           0       -2.808800    0.135486   -1.570502
     30          6           0       -4.791018   -0.533960   -1.015249
     31          1           0       -2.935297   -1.591096   -1.390467
     32          1           0       -2.559342   -1.488419    2.239150
     33          6           0       -3.186317   -2.984995    0.830537
     34          1           0       -4.219082   -1.272926    1.633984
     35          6           0        0.039937   -2.389334    0.140728
     36          1           0       -2.181976   -3.291490    0.511477
     37          1           0       -3.883271   -3.136880   -0.006450
     38          1           0       -3.503375   -3.651531    1.646167
     39          1           0       -5.103177   -0.627872   -2.066000
     40          1           0       -5.167870    0.434999   -0.654144
     41          1           0       -5.299278   -1.328999   -0.449682
     42          1           0        2.907148   -1.713938   -3.124779
     43          1           0        1.627431   -0.487895   -2.924921
     44          1           0        1.477102   -2.049628   -2.107427
     45          1           0        4.236551   -2.497270   -1.244430
     46          1           0        2.891962   -2.633003   -0.091526
     47          1           0        4.321070   -1.633781    0.302652
     48          1           0        4.741820   -0.316484   -2.362792
     49          1           0        4.639262    0.675000   -0.896130
     50          1           0        3.608007    1.040178   -2.301811
     51          1           0        4.675067    0.274786    1.195721
     52          1           0        4.282647    1.296681    2.589412
     53          1           0        4.015328    1.912665    0.947470
     54          1           0        3.138354   -1.613766    2.108095
     55          1           0        1.463379   -1.205147    2.544926
     56          1           0        2.831935   -0.582649    3.524435
     57          1           0        1.984859    1.657149    3.355219
     58          1           0        0.591197    1.131305    2.365461
     59          1           0        1.645003    2.464228    1.809766
     60          8           0        0.396575   -3.506205    0.097180
     61          8           0       -0.690104    0.211730   -2.972027
     62          1           0       -0.958130    1.085129   -2.661514
     63          1           0       -0.529836   -0.266738   -2.110208
 ---------------------------------------------------------------------

 SCF Done:  E(RPBE1PBE) =  -1479.80012425     A.U. after   18 cycles

 The electronic state is 1-A.
 Alpha  occ. eigenvalues --  -77.23826 -19.21769 -19.18839 -14.42295 -14.42231
 Alpha  occ. eigenvalues --  -10.28629 -10.28253 -10.27888 -10.25817 -10.25068
 Alpha  occ. eigenvalues --  -10.24694 -10.24385 -10.24198 -10.23957 -10.23924
 Alpha  occ. eigenvalues --  -10.23868 -10.22919 -10.20741 -10.20581 -10.20543
 Alpha  occ. eigenvalues --  -10.20533 -10.20478 -10.20471 -10.20220 -10.20077
 Alpha  occ. eigenvalues --   -6.61196  -4.74902  -4.74791  -4.74516  -2.97600
 Alpha  occ. eigenvalues --   -1.82916  -1.81366  -1.78251  -1.09473  -1.01576
 Alpha  occ. eigenvalues --   -1.00087  -0.96445  -0.84533  -0.83579  -0.82930
 Alpha  occ. eigenvalues --   -0.82153  -0.77814  -0.76874  -0.73775  -0.70345
 Alpha  occ. eigenvalues --   -0.70196  -0.69748  -0.69235  -0.69058  -0.66018
 Alpha  occ. eigenvalues --   -0.65347  -0.62962  -0.61399  -0.57735  -0.55545
 Alpha  occ. eigenvalues --   -0.54683  -0.53033  -0.52682  -0.51869  -0.51179
 Alpha  occ. eigenvalues --   -0.50951  -0.49790  -0.48085  -0.47401  -0.46065
 Alpha  occ. eigenvalues --   -0.45451  -0.45342  -0.45054  -0.44644  -0.44260
 Alpha  occ. eigenvalues --   -0.43849  -0.43350  -0.42821  -0.42105  -0.41890
 Alpha  occ. eigenvalues --   -0.41786  -0.41282  -0.41205  -0.40533  -0.40160
 Alpha  occ. eigenvalues --   -0.39642  -0.39124  -0.38861  -0.38471  -0.38155
 Alpha  occ. eigenvalues --   -0.38037  -0.37798  -0.36664  -0.36374  -0.36348
 Alpha  occ. eigenvalues --   -0.35879  -0.34899  -0.34585  -0.34437  -0.34296
 Alpha  occ. eigenvalues --   -0.33198  -0.32914  -0.32284  -0.32003  -0.31442
 Alpha  occ. eigenvalues --   -0.31303  -0.30536  -0.28927  -0.26784  -0.26038
 Alpha  occ. eigenvalues --   -0.21314  -0.19246  -0.17544  -0.15505
 Alpha virt. eigenvalues --   -0.04953  -0.02018   0.00539   0.00790   0.02260
 Alpha virt. eigenvalues --    0.03109   0.03630   0.04034   0.06187   0.06706
 Alpha virt. eigenvalues --    0.07460   0.07781   0.08019   0.08171   0.08876

 Mulliken charges:
               1
     1  N   -0.216658
     2  C    0.078274
     3  C    0.018107
     4  C   -0.162851
     5  C   -0.135282
     6  C   -0.132026
     7  C   -0.055831
     8  H    0.160450
     9  H    0.163273
    10  H    0.161843
    11  C   -0.232314
    12  N   -0.255355
    13  H    0.125339
    14  H    0.152666
    15  H    0.157733
    16  P    0.047376
    17  H    0.144864
    18  Ru   0.099032
    19  C   -0.121338
    20  C    0.006808
    21  C   -0.124602
    22  C    0.015055
    23  C   -0.358827
    24  C   -0.351135
    25  C   -0.337309
    26  C   -0.358204
    27  C   -0.337110
    28  C   -0.343631
    29  H    0.134652
    30  C   -0.321017
    31  H    0.140272
    32  H    0.146156
    33  C   -0.343694
    34  H    0.117099
    35  C   -0.213913
    36  H    0.134231
    37  H    0.113212
    38  H    0.119015
    39  H    0.117866
    40  H    0.110531
    41  H    0.111271
    42  H    0.107611
    43  H    0.115894
    44  H    0.147256
    45  H    0.104563
    46  H    0.122710
    47  H    0.120115
    48  H    0.106055
    49  H    0.121344
    50  H    0.113084
    51  H    0.116494
    52  H    0.104627
    53  H    0.114031
    54  H    0.118268
    55  H    0.118782
    56  H    0.104395
    57  H    0.109378
    58  H    0.131518
    59  H    0.115992
    60  O   -0.345153
    61  O   -0.557155
    62  H    0.278352
    63  H    0.357811
 Sum of Mulliken charges =  -0.00000

 Dipole moment (field-independent basis, Debye):
    X=             -3.8286    Y=             12.5100    Z=              3.5394  Tot=             13.5531
 Quadrupole moment (field-independent basis, Debye-Ang):
   XX=           -148.7368   YY=           -181.3439   ZZ=           -197.0580
   XY=             -0.6602   XZ=             -7.6449   YZ=             -4.0626

 Normal termination of Gaussian 16 at Tue May  5 02:46:01 2020.
