 Gaussian 16, Revision A.03,
 Gaussian 16:  ES64L-G16RevA.03 25-Dec-2016

 ----------------------------------------------------------------------
 # pbe1pbe/cc-pVTZ EmpiricalDispersion=GD3BJ scrf=(SMD,solvent=water) g
 eom=allcheck
 ----------------------------------------------------------------------

 Structure from the checkpoint file:  "/scratch/js1212.534966/O2-GPOF.chk"
 -------------------
 Title Card Required
 -------------------
 Charge =  0 Multiplicity = 3

                         Standard orientation:
 ---------------------------------------------------------------------
 Center     Atomic      Atomic             Coordinates (Angstroms)
 Number     Number       Type             X           Y           Z
 ---------------------------------------------------------------------
      1          8           0        0.000000    0.000000    0.598062
      2          8           0        0.000000    0.000000   -0.598062
 ---------------------------------------------------------------------

 SCF Done:  E(UPBE1PBE) =  -150.227614150     A.U. after    8 cycles

 The electronic state is 3-SGG.
 Alpha  occ. eigenvalues --  -19.35898 -19.35873  -1.34027  -0.85736  -0.58114
 Alpha  occ. eigenvalues --   -0.58114  -0.56290  -0.31472  -0.31472
 Alpha virt. eigenvalues --    0.21483   0.52490   0.52490   0.52526   0.57160
 Alpha virt. eigenvalues --    0.63885   0.63885   0.68345   1.21680   1.21685
 Alpha virt. eigenvalues --    1.22610   1.30609   1.30609   1.62145   1.62147

  Beta  occ. eigenvalues --  -19.32722 -19.32680  -1.28075  -0.76101  -0.52252
  Beta  occ. eigenvalues --   -0.46908  -0.46908
  Beta virt. eigenvalues --   -0.08915  -0.08915   0.25480   0.54753   0.56402
  Beta virt. eigenvalues --    0.56402   0.58320   0.68632   0.68632   0.70734
  Beta virt. eigenvalues --    1.26228   1.26233   1.26312   1.33859   1.33859

 Mulliken charges and spin densities:
               1          2
     1  O    0.000000   1.000000
     2  O    0.000000   1.000000
 Sum of Mulliken charges =   0.00000   2.00000

 Dipole moment (field-independent basis, Debye):
    X=              0.0000    Y=             -0.0000    Z=              0.0000  Tot=              0.0000
 Quadrupole moment (field-independent basis, Debye-Ang):
   XX=             -9.8684   YY=             -9.8684   ZZ=            -10.4383
   XY=              0.0000   XZ=              0.0000   YZ=              0.0000

 Normal termination of Gaussian 16 at Fri Oct 11 14:12:29 2019.
