 Gaussian 16, Revision A.03,
 Gaussian 16:  ES64L-G16RevA.03 25-Dec-2016

 ----------------------------------------------------
 # opt freq pbe1pbe/cc-pVDZ EmpiricalDispersion=GD3BJ
 ----------------------------------------------------

 -------------------
 Title Card Required
 -------------------
 Symbolic Z-matrix:
 Charge =  0 Multiplicity = 3

 SCF Done:  E(UPBE1PBE) =  -150.033049784     A.U. after   10 cycles
 SCF Done:  E(UPBE1PBE) =  -150.154629310     A.U. after   10 cycles
 SCF Done:  E(UPBE1PBE) =  -150.174928112     A.U. after   11 cycles
 SCF Done:  E(UPBE1PBE) =  -150.182190784     A.U. after   10 cycles
 SCF Done:  E(UPBE1PBE) =  -150.182191713     A.U. after    6 cycles
 Optimization completed.
    -- Stationary point found.
 Normal termination of Gaussian 16 at Tue Oct  8 17:57:30 2019.

 ---------------------------------------------------------------------
 #N Geom=AllCheck Guess=TCheck SCRF=Check GenChk UPBE1PBE/CC-pVDZ Freq
 ---------------------------------------------------------------------

 Structure from the checkpoint file:  "/scratch/js1212.533850/O2-GPOF.chk"
 -------------------
 Title Card Required
 -------------------
 Charge =  0 Multiplicity = 3

                         Standard orientation:
 ---------------------------------------------------------------------
 Center     Atomic      Atomic             Coordinates (Angstroms)
 Number     Number       Type             X           Y           Z
 ---------------------------------------------------------------------
      1          8           0        0.000000    0.000000    0.598062
      2          8           0        0.000000    0.000000   -0.598062
 ---------------------------------------------------------------------

 SCF Done:  E(UPBE1PBE) =  -150.182191713     A.U. after    1 cycles

 The electronic state is 3-SGG.
 Alpha  occ. eigenvalues --  -19.36493 -19.36480  -1.34927  -0.85767  -0.58272
 Alpha  occ. eigenvalues --   -0.58272  -0.56048  -0.31349  -0.31349
 Alpha virt. eigenvalues --    0.23699   0.81365   0.83074   0.83074   0.91160
 Alpha virt. eigenvalues --    0.94632   0.94632   1.07343   1.69951   2.06547
 Alpha virt. eigenvalues --    2.06547   2.31378   2.31378   2.62380   2.62380

  Beta  occ. eigenvalues --  -19.33374 -19.33343  -1.28874  -0.76177  -0.51907
  Beta  occ. eigenvalues --   -0.47014  -0.47014
  Beta virt. eigenvalues --   -0.08821  -0.08821   0.28344   0.83436   0.89368
  Beta virt. eigenvalues --    0.89368   0.92720   1.01182   1.01182   1.10557
  Beta virt. eigenvalues --    1.74578   2.11011   2.11011   2.39802   2.39802

 Mulliken charges and spin densities:
               1          2
     1  O   -0.000000   1.000000
     2  O   -0.000000   1.000000
 Sum of Mulliken charges =  -0.00000   2.00000

 Dipole moment (field-independent basis, Debye):
    X=             -0.0000    Y=              0.0000    Z=             -0.0000  Tot=              0.0000
 Quadrupole moment (field-independent basis, Debye-Ang):
   XX=             -9.7177   YY=             -9.7177   ZZ=            -10.3665
   XY=              0.0000   XZ=              0.0000   YZ=              0.0000

  Exact polarizability:   3.199   0.000   3.199  -0.000   0.000  12.162
 Approx polarizability:   3.762  -0.000   3.762  -0.000  -0.000  21.408

                      1
                     SGG
 Frequencies --   1724.4064
 Red. masses --     15.9949
 Frc consts  --     28.0228
 IR Inten    --      0.0000

 - Thermochemistry -
 -------------------
 Temperature   298.150 Kelvin.  Pressure   1.00000 Atm.
 Atom     1 has atomic number  8 and mass  15.99491

 Molecular mass:    31.98983 amu.
 Principal axes and moments of inertia in atomic units:
                           1         2         3
     Eigenvalues --     0.00000  40.86032  40.86032
           X           -0.00000   1.00000  -0.00000
           Y            0.00000   0.00000   1.00000
           Z            1.00000   0.00000  -0.00000
 This molecule is a prolate symmetric top.
 Rotational symmetry number  2.
 Rotational temperature (Kelvin)      2.11976
 Rotational constant (GHZ):          44.168550
 Zero-point vibrational energy      10314.2 (Joules/Mol)
                                    2.46516 (Kcal/Mol)
 Vibrational temperatures:   2481.04
          (Kelvin)

 Zero-point correction=                           0.003928 (Hartree/Particle)
 Thermal correction to Energy=                    0.006291
 Thermal correction to Enthalpy=                  0.007235
 Thermal correction to Gibbs Free Energy=        -0.016021
 Sum of electronic and zero-point Energies=           -150.178263
 Sum of electronic and thermal Energies=              -150.175901
 Sum of electronic and thermal Enthalpies=            -150.174957
 Sum of electronic and thermal Free Energies=         -150.198213

                     E (Thermal)             CV                S
                      KCal/Mol        Cal/Mol-Kelvin    Cal/Mol-Kelvin
 Total                    3.948              5.001             48.947
 Electronic               0.000              0.000              2.183
 Translational            0.889              2.981             36.321
 Rotational               0.592              1.987             10.439
 Vibrational              2.466              0.033              0.005

 Optimization completed.
    -- Stationary point found.
 Normal termination of Gaussian 16 at Tue Oct  8 17:57:39 2019.
