 Gaussian 16, Revision A.03,
 Gaussian 16:  ES64L-G16RevA.03 25-Dec-2016

 ----------------------------------------------------------------------
 # genecp pbe1pbe EmpiricalDispersion=GD3BJ scrf=(SMD,solvent=water) td
 =nstates=12 geom=allcheck
 ----------------------------------------------------------------------

 Structure from the checkpoint file:  "/scratch/js1212.574152/3-HTrans-GPOF-D-0.chk"
 -------------------
 Title Card Required
 -------------------
 Charge =  0 Multiplicity = 2

                         Standard orientation:
 ---------------------------------------------------------------------
 Center     Atomic      Atomic             Coordinates (Angstroms)
 Number     Number       Type             X           Y           Z
 ---------------------------------------------------------------------
      1          7           0       -0.735499    1.421249   -0.022084
      2          6           0       -1.967498    1.864556    0.280525
      3          6           0        0.173400    2.231700   -0.595282
      4          6           0       -2.326523    3.190446    0.080169
      5          6           0       -1.375385    4.065783   -0.442168
      6          6           0       -0.118938    3.581150   -0.790525
      7          6           0       -2.865008    0.811167    0.856616
      8          1           0       -3.333024    3.528526    0.328797
      9          1           0       -1.621904    5.117192   -0.599596
     10          1           0        0.630459    4.236143   -1.236405
     11          6           0        1.442625    1.589979   -1.067900
     12          7           0       -2.698455   -0.482403    0.160271
     13          1           0       -3.915494    1.147065    0.852667
     14          1           0       -2.576250    0.650267    1.908180
     15          1           0        1.235886    1.240277   -2.094628
     16         15           0        1.788692   -0.008739   -0.171166
     17          1           0        2.283342    2.297874   -1.080757
     18         44           0       -0.414480   -0.640960    0.072719
     19          6           0       -3.259478   -0.424834   -1.210933
     20          6           0        2.952624   -0.964721   -1.330949
     21          6           0       -3.332352   -1.541285    0.980825
     22          6           0        2.720344    0.544742    1.395515
     23          6           0        2.101818   -1.669707   -2.389056
     24          6           0        3.682243   -2.044662   -0.529836
     25          6           0        3.952999   -0.048568   -2.039699
     26          6           0        1.858046    1.616266    2.074914
     27          6           0        4.087213    1.162386    1.095913
     28          6           0        2.897448   -0.628005    2.365006
     29          6           0       -0.391021   -0.908567    1.889172
     30          8           0       -0.439963   -1.105991    3.036850
     31          1           0       -2.691393    0.343367   -1.750611
     32          6           0       -4.759956   -0.204379   -1.314434
     33          1           0       -2.973545   -1.363363   -1.700589
     34          1           0       -2.844328   -1.506718    1.965229
     35          6           0       -3.198270   -2.930710    0.397359
     36          1           0       -4.396466   -1.283293    1.144990
     37          8           0       -0.223822   -2.504996   -0.321042
     38          8           0       -0.538864   -0.350068   -1.973022
     39          1           0       -2.140958   -3.151364    0.171566
     40          1           0       -3.793819   -3.059946   -0.518520
     41          1           0       -3.562821   -3.661992    1.133972
     42          1           0       -5.031872   -0.175140   -2.380229
     43          1           0       -5.089399    0.750498   -0.876168
     44          1           0       -5.346497   -1.012283   -0.851336
     45          1           0        2.780231   -2.248662   -3.038461
     46          1           0        1.537414   -0.957220   -3.004234
     47          1           0        1.376710   -2.350374   -1.917522
     48          1           0        4.201781   -2.711743   -1.236931
     49          1           0        2.974855   -2.659654    0.047102
     50          1           0        4.441288   -1.634686    0.150332
     51          1           0        4.592192   -0.669071   -2.689800
     52          1           0        4.612768    0.497572   -1.354401
     53          1           0        3.446343    0.679255   -2.690330
     54          1           0        4.808292    0.424542    0.719848
     55          1           0        4.500745    1.574645    2.031483
     56          1           0        4.027409    1.991153    0.374082
     57          1           0        3.615000   -1.370357    1.997036
     58          1           0        1.953197   -1.143062    2.575716
     59          1           0        3.284767   -0.238228    3.321156
     60          1           0        2.326459    1.884368    3.035855
     61          1           0        0.839632    1.263325    2.283044
     62          1           0        1.789474    2.536099    1.475440
     63          1           0       -0.520851   -1.271601   -2.269129
 ---------------------------------------------------------------------

 SCF Done:  E(UPBE1PBE) =  -1554.03826480     A.U. after   27 cycles

 Excitation energies and oscillator strengths:

 Excited State   1:  2.009-A      0.6119 eV 2026.22 nm  f=0.0001  <S**2>=0.759
    103B ->113B       -0.13051
    109B ->113B        0.14759
    112B ->113B        0.96601
    112B ->114B       -0.11926
 This state for optimization and/or second-order correction.
 Total Energy, E(TD-HF/TD-DFT) =  -1554.01577794
 Copying the excited state density for this state as the 1-particle RhoCI density.

 Excited State   2:  2.047-A      2.3504 eV  527.50 nm  f=0.0018  <S**2>=0.797
    105B ->113B       -0.10190
    111B ->113B        0.96719
    111B ->114B       -0.10434

 Excited State   3:  2.162-A      2.9202 eV  424.58 nm  f=0.0055  <S**2>=0.918
    113A ->116A       -0.15314
     93B ->113B        0.11794
     94B ->113B       -0.12397
    105B ->113B        0.59837
    106B ->113B        0.43179
    107B ->113B        0.28213
    109B ->113B        0.40741
    110B ->113B        0.13556
    112B ->116B        0.22143

 Excited State   4:  2.940-A      2.9571 eV  419.28 nm  f=0.0096  <S**2>=1.911
    112A ->116A       -0.26323
    113A ->114A       -0.24052
    113A ->116A       -0.33819
    105B ->113B       -0.18952
    110B ->113B       -0.44162
    112B ->114B        0.45780
    112B ->116B        0.42628

 Excited State   5:  2.604-A      3.0362 eV  408.35 nm  f=0.0390  <S**2>=1.445
    111A ->116A       -0.16826
    112A ->116A        0.41138
    113A ->114A       -0.18815
    113A ->116A       -0.17950
    105B ->113B       -0.14844
    106B ->113B       -0.15573
    109B ->113B       -0.11916
    110B ->113B        0.61787
    112B ->114B        0.29603
    112B ->116B        0.30878

 Excited State   6:  3.313-A      3.0804 eV  402.49 nm  f=0.0027  <S**2>=2.494
    110A ->115A       -0.10528
    113A ->114A       -0.29505
    113A ->116A        0.36426
    105B ->113B        0.17197
    106B ->113B        0.10115
    112B ->113B        0.11933
    112B ->114B        0.59184
    112B ->116B       -0.45304

 Excited State   7:  2.334-A      3.2373 eV  382.99 nm  f=0.0202  <S**2>=1.112
    108A ->116A        0.11940
    111A ->116A       -0.12243
    112A ->114A        0.11200
    112A ->116A        0.67005
    113A ->114A        0.15690
    113A ->116A        0.22888
    109B ->113B        0.24198
    110B ->113B       -0.44425
    111B ->116B       -0.13942
    112B ->116B        0.20316

 Excited State   8:  2.333-A      3.4451 eV  359.88 nm  f=0.0094  <S**2>=1.110
    112A ->114A       -0.16303
    112A ->116A       -0.25440
    113A ->114A        0.23708
    113A ->116A        0.49820
    102B ->113B       -0.14722
    103B ->113B       -0.21872
    105B ->113B       -0.26053
    106B ->113B       -0.16395
    107B ->113B        0.17798
    109B ->113B        0.45709
    110B ->113B        0.20597
    111B ->116B        0.14663
    112B ->113B       -0.10902
    112B ->114B        0.19002
    112B ->116B        0.10353

 Excited State   9:  2.364-A      3.5040 eV  353.83 nm  f=0.0349  <S**2>=1.147
    111A ->116A       -0.17912
    112A ->116A       -0.10387
    113A ->114A        0.51184
    113A ->116A        0.16293
    113A ->118A        0.12699
    102B ->113B        0.13848
    103B ->113B        0.15887
    105B ->113B        0.20048
    106B ->113B        0.13527
    109B ->113B       -0.40209
    111B ->116B        0.11111
    112B ->113B        0.13389
    112B ->114B        0.34051
    112B ->115B        0.11402
    112B ->116B        0.28729
    112B ->118B       -0.18093

 Excited State  10:  2.992-A      3.5663 eV  347.65 nm  f=0.0323  <S**2>=1.988
    107A ->116A        0.14248
    111A ->114A        0.16686
    111A ->116A        0.49416
    112A ->114A        0.20781
    113A ->114A        0.39965
    113A ->116A       -0.16430
    110B ->113B        0.13114
    111B ->114B       -0.24795
    111B ->116B       -0.40608
    112B ->114B        0.29095
    112B ->116B       -0.14729

 Excited State  11:  2.411-A      3.5957 eV  344.81 nm  f=0.0047  <S**2>=1.204
    111A ->116A        0.28140
    113A ->114A       -0.28313
    113A ->116A        0.49706
    109B ->113B       -0.23962
    111B ->113B       -0.10121
    111B ->114B       -0.19204
    111B ->116B       -0.26384
    112B ->114B       -0.23237
    112B ->116B        0.45870
    112B ->118B        0.10068

 Excited State  12:  2.485-A      3.6520 eV  339.50 nm  f=0.0010  <S**2>=1.293
    112A ->114A        0.90439
    112A ->116A       -0.16325
    113A ->114A       -0.12795
    113A ->116A        0.11723
    113A ->118A        0.12401
    111B ->116B        0.13926
    112B ->118B       -0.17262

 The electronic state is 2-A.
 Alpha  occ. eigenvalues --  -77.26187 -19.26882 -19.17590 -19.14264 -14.44272
 Alpha  occ. eigenvalues --  -14.44146 -10.32427 -10.29774 -10.29279 -10.27000
 Alpha  occ. eigenvalues --  -10.25985 -10.25898 -10.25866 -10.25668 -10.25022
 Alpha  occ. eigenvalues --  -10.24950 -10.24895 -10.24562 -10.22014 -10.21974
 Alpha  occ. eigenvalues --  -10.21972 -10.21906 -10.21816 -10.21679 -10.21356
 Alpha  occ. eigenvalues --  -10.20966  -6.64172  -4.77795  -4.77712  -4.77533
 Alpha  occ. eigenvalues --   -3.07057  -1.90328  -1.90202  -1.89757  -1.13346
 Alpha  occ. eigenvalues --   -1.01172  -0.97207  -0.92360  -0.89038  -0.85461
 Alpha  occ. eigenvalues --   -0.84017  -0.83620  -0.82889  -0.77922  -0.77240
 Alpha  occ. eigenvalues --   -0.74409  -0.70717  -0.70604  -0.70262  -0.69701
 Alpha  occ. eigenvalues --   -0.69267  -0.66371  -0.66171  -0.63478  -0.62322
 Alpha  occ. eigenvalues --   -0.57806  -0.57428  -0.56277  -0.53595  -0.53195
 Alpha  occ. eigenvalues --   -0.52202  -0.51272  -0.50597  -0.48477  -0.47847
 Alpha  occ. eigenvalues --   -0.47303  -0.46429  -0.45981  -0.45843  -0.45537
 Alpha  occ. eigenvalues --   -0.45157  -0.44696  -0.44207  -0.44057  -0.43597
 Alpha  occ. eigenvalues --   -0.43317  -0.42818  -0.42101  -0.41611  -0.41426
 Alpha  occ. eigenvalues --   -0.40431  -0.39911  -0.39264  -0.38977  -0.38847
 Alpha  occ. eigenvalues --   -0.38606  -0.38256  -0.38035  -0.37266  -0.36855
 Alpha  occ. eigenvalues --   -0.36723  -0.36390  -0.36091  -0.35371  -0.35015
 Alpha  occ. eigenvalues --   -0.34581  -0.34018  -0.33754  -0.33432  -0.33066
 Alpha  occ. eigenvalues --   -0.32722  -0.32351  -0.32066  -0.31480  -0.30180
 Alpha  occ. eigenvalues --   -0.29828  -0.28687  -0.27651  -0.27261  -0.26777
 Alpha  occ. eigenvalues --   -0.22134  -0.21095  -0.20429
 Alpha virt. eigenvalues --   -0.03944  -0.01942  -0.00721   0.01039   0.01979
 Alpha virt. eigenvalues --    0.02152   0.02592   0.03638   0.03806   0.05570
 Alpha virt. eigenvalues --    0.06433   0.08756   0.09083   0.09562   0.09585

  Beta  occ. eigenvalues --  -77.26185 -19.26913 -19.15759 -19.14284 -14.44206
  Beta  occ. eigenvalues --  -14.44171 -10.32465 -10.29771 -10.29275 -10.27002
  Beta  occ. eigenvalues --  -10.25987 -10.25899 -10.25853 -10.25670 -10.25022
  Beta  occ. eigenvalues --  -10.24951 -10.24897 -10.24561 -10.22014 -10.21975
  Beta  occ. eigenvalues --  -10.21972 -10.21901 -10.21814 -10.21679 -10.21326
  Beta  occ. eigenvalues --  -10.20959  -6.64169  -4.77793  -4.77713  -4.77525
  Beta  occ. eigenvalues --   -3.05672  -1.89241  -1.88294  -1.88058  -1.13407
  Beta  occ. eigenvalues --   -1.01167  -0.97125  -0.92343  -0.85473  -0.84169
  Beta  occ. eigenvalues --   -0.83665  -0.83585  -0.82860  -0.77882  -0.77228
  Beta  occ. eigenvalues --   -0.74393  -0.70703  -0.70587  -0.70258  -0.69698
  Beta  occ. eigenvalues --   -0.69248  -0.66341  -0.66149  -0.63446  -0.62303
  Beta  occ. eigenvalues --   -0.57760  -0.57501  -0.56262  -0.53575  -0.53170
  Beta  occ. eigenvalues --   -0.52154  -0.51210  -0.50560  -0.48462  -0.47822
  Beta  occ. eigenvalues --   -0.47290  -0.46364  -0.45984  -0.45841  -0.45494
  Beta  occ. eigenvalues --   -0.45120  -0.44627  -0.44202  -0.44054  -0.43579
  Beta  occ. eigenvalues --   -0.43321  -0.42795  -0.42060  -0.41593  -0.41374
  Beta  occ. eigenvalues --   -0.40357  -0.39884  -0.39258  -0.38966  -0.38569
  Beta  occ. eigenvalues --   -0.38409  -0.38194  -0.38002  -0.37144  -0.36663
  Beta  occ. eigenvalues --   -0.36397  -0.36281  -0.35909  -0.35192  -0.34814
  Beta  occ. eigenvalues --   -0.34497  -0.33745  -0.33656  -0.33122  -0.32967
  Beta  occ. eigenvalues --   -0.32467  -0.31797  -0.31118  -0.30325  -0.28834
  Beta  occ. eigenvalues --   -0.28239  -0.27121  -0.27071  -0.26631  -0.25483
  Beta  occ. eigenvalues --   -0.21606  -0.19160
  Beta virt. eigenvalues --   -0.06791  -0.03861  -0.01938  -0.00169   0.01089
  Beta virt. eigenvalues --    0.02048   0.02317   0.02680   0.03702   0.03867
  Beta virt. eigenvalues --    0.05940   0.06522   0.08890   0.09133   0.09583

 Mulliken charges and spin densities:
               1          2
     1  N   -0.319043  -0.008207
     2  C    0.042505   0.000862
     3  C    0.070408   0.000149
     4  C   -0.048103   0.000154
     5  C    0.084760  -0.000900
     6  C   -0.043861   0.000004
     7  C    0.123357  -0.000115
     8  H    0.036825   0.000128
     9  H    0.048947   0.000054
    10  H    0.037092  -0.000060
    11  C   -0.076893   0.000635
    12  N   -0.392475   0.023066
    13  H    0.076385  -0.000620
    14  H    0.120864   0.000198
    15  H    0.140006  -0.000150
    16  P    0.265419   0.014980
    17  H    0.098928  -0.000317
    18  Ru  -0.027050   0.281675
    19  C   -0.023749  -0.000167
    20  C   -0.467720   0.005161
    21  C   -0.001480  -0.000981
    22  C   -0.457966  -0.000686
    23  C   -0.007588   0.005804
    24  C   -0.021294  -0.000333
    25  C   -0.001567   0.001368
    26  C   -0.023433  -0.000204
    27  C   -0.000473  -0.000112
    28  C   -0.019191   0.000192
    29  C    0.013765  -0.022066
    30  O   -0.167727  -0.009511
    31  H    0.118028   0.000517
    32  C   -0.076645   0.001120
    33  H    0.103723   0.000576
    34  H    0.079389   0.001106
    35  C   -0.114569   0.014993
    36  H    0.058147   0.005957
    37  O   -0.514679   0.689242
    38  O   -0.476342  -0.005687
    39  H    0.108673  -0.000440
    40  H    0.063333  -0.000273
    41  H    0.061623   0.000129
    42  H    0.062461   0.000165
    43  H    0.064411  -0.000061
    44  H    0.062550  -0.000087
    45  H    0.042345   0.000474
    46  H    0.063127   0.000013
    47  H    0.089285  -0.000465
    48  H    0.053995   0.000572
    49  H    0.082600  -0.000197
    50  H    0.068397  -0.000016
    51  H    0.050748   0.000539
    52  H    0.047504  -0.000089
    53  H    0.060132  -0.000080
    54  H    0.066900   0.000005
    55  H    0.051379  -0.000033
    56  H    0.061126  -0.000023
    57  H    0.050309   0.000042
    58  H    0.081519   0.000464
    59  H    0.052380   0.000011
    60  H    0.054077   0.000006
    61  H    0.098115   0.000112
    62  H    0.068454   0.000010
    63  H    0.197858   0.001397
 Sum of Mulliken charges =  -0.00000   1.00000

 Dipole moment (field-independent basis, Debye):
    X=             -0.0265    Y=             12.3563    Z=              1.4654  Tot=             12.4429
 Quadrupole moment (field-independent basis, Debye-Ang):
   XX=           -141.6329   YY=           -182.7633   ZZ=           -197.4625
   XY=             -3.3787   XZ=             -6.1606   YZ=             -0.4535

 Normal termination of Gaussian 16 at Fri Feb 14 12:28:41 2020.
