 Gaussian 16, Revision A.03,
 Gaussian 16:  ES64L-G16RevA.03 25-Dec-2016

 ----------------------------------------------------------------------
 # genecp pbe1pbe EmpiricalDispersion=GD3BJ scrf=(SMD,solvent=water) ge
 om=allcheck
 ----------------------------------------------------------------------

 Structure from the checkpoint file:  "/scratch/js1212.771176/3-HTrans-D-0-GP-SMD.chk"
 -------------------
 Title Card Required
 -------------------
 Charge =  0 Multiplicity = 2

                         Standard orientation:
 ---------------------------------------------------------------------
 Center     Atomic      Atomic             Coordinates (Angstroms)
 Number     Number       Type             X           Y           Z
 ---------------------------------------------------------------------
      1          7           0       -0.735499    1.421249   -0.022084
      2          6           0       -1.967498    1.864556    0.280525
      3          6           0        0.173400    2.231700   -0.595282
      4          6           0       -2.326523    3.190446    0.080169
      5          6           0       -1.375385    4.065783   -0.442168
      6          6           0       -0.118938    3.581150   -0.790525
      7          6           0       -2.865008    0.811167    0.856616
      8          1           0       -3.333024    3.528526    0.328797
      9          1           0       -1.621904    5.117192   -0.599596
     10          1           0        0.630459    4.236143   -1.236405
     11          6           0        1.442625    1.589979   -1.067900
     12          7           0       -2.698455   -0.482403    0.160271
     13          1           0       -3.915494    1.147065    0.852667
     14          1           0       -2.576250    0.650267    1.908180
     15          1           0        1.235886    1.240277   -2.094628
     16         15           0        1.788692   -0.008739   -0.171166
     17          1           0        2.283342    2.297874   -1.080757
     18         44           0       -0.414480   -0.640960    0.072719
     19          6           0       -3.259478   -0.424834   -1.210933
     20          6           0        2.952624   -0.964721   -1.330949
     21          6           0       -3.332352   -1.541285    0.980825
     22          6           0        2.720344    0.544742    1.395515
     23          6           0        2.101818   -1.669707   -2.389056
     24          6           0        3.682243   -2.044662   -0.529836
     25          6           0        3.952999   -0.048568   -2.039699
     26          6           0        1.858046    1.616266    2.074914
     27          6           0        4.087213    1.162386    1.095913
     28          6           0        2.897448   -0.628005    2.365006
     29          6           0       -0.391021   -0.908567    1.889172
     30          8           0       -0.439963   -1.105991    3.036850
     31          1           0       -2.691393    0.343367   -1.750611
     32          6           0       -4.759956   -0.204379   -1.314434
     33          1           0       -2.973545   -1.363363   -1.700589
     34          1           0       -2.844328   -1.506718    1.965229
     35          6           0       -3.198270   -2.930710    0.397359
     36          1           0       -4.396466   -1.283293    1.144990
     37          8           0       -0.223822   -2.504996   -0.321042
     38          8           0       -0.538864   -0.350068   -1.973022
     39          1           0       -2.140958   -3.151364    0.171566
     40          1           0       -3.793819   -3.059946   -0.518520
     41          1           0       -3.562821   -3.661992    1.133972
     42          1           0       -5.031872   -0.175140   -2.380229
     43          1           0       -5.089399    0.750498   -0.876168
     44          1           0       -5.346497   -1.012283   -0.851336
     45          1           0        2.780231   -2.248662   -3.038461
     46          1           0        1.537414   -0.957220   -3.004234
     47          1           0        1.376710   -2.350374   -1.917522
     48          1           0        4.201781   -2.711743   -1.236931
     49          1           0        2.974855   -2.659654    0.047102
     50          1           0        4.441288   -1.634686    0.150332
     51          1           0        4.592192   -0.669071   -2.689800
     52          1           0        4.612768    0.497572   -1.354401
     53          1           0        3.446343    0.679255   -2.690330
     54          1           0        4.808292    0.424542    0.719848
     55          1           0        4.500745    1.574645    2.031483
     56          1           0        4.027409    1.991153    0.374082
     57          1           0        3.615000   -1.370357    1.997036
     58          1           0        1.953197   -1.143062    2.575716
     59          1           0        3.284767   -0.238228    3.321156
     60          1           0        2.326459    1.884368    3.035855
     61          1           0        0.839632    1.263325    2.283044
     62          1           0        1.789474    2.536099    1.475440
     63          1           0       -0.520851   -1.271601   -2.269129
 ---------------------------------------------------------------------

 SCF Done:  E(UPBE1PBE) =  -1554.35317703     A.U. after   25 cycles

 The electronic state is 2-A.
 Alpha  occ. eigenvalues --  -77.26297 -19.25564 -19.16136 -19.12940 -14.43388
 Alpha  occ. eigenvalues --  -14.43106 -10.31722 -10.29065 -10.28565 -10.26209
 Alpha  occ. eigenvalues --  -10.25424 -10.25403 -10.25199 -10.24873 -10.24230
 Alpha  occ. eigenvalues --  -10.24159 -10.24122 -10.23775 -10.21034 -10.21010
 Alpha  occ. eigenvalues --  -10.20987 -10.20925 -10.20806 -10.20695 -10.20358
 Alpha  occ. eigenvalues --  -10.20015  -6.63737  -4.77390  -4.77305  -4.77133
 Alpha  occ. eigenvalues --   -3.07297  -1.90511  -1.90444  -1.89980  -1.13065
 Alpha  occ. eigenvalues --   -1.00978  -0.97080  -0.92581  -0.89019  -0.85407
 Alpha  occ. eigenvalues --   -0.83881  -0.83524  -0.82887  -0.77930  -0.77210
 Alpha  occ. eigenvalues --   -0.74346  -0.70738  -0.70599  -0.70298  -0.69738
 Alpha  occ. eigenvalues --   -0.69314  -0.66322  -0.66168  -0.63449  -0.62290
 Alpha  occ. eigenvalues --   -0.57883  -0.57473  -0.56344  -0.53664  -0.53268
 Alpha  occ. eigenvalues --   -0.52305  -0.51394  -0.50725  -0.48591  -0.47930
 Alpha  occ. eigenvalues --   -0.47457  -0.46560  -0.46144  -0.46013  -0.45699
 Alpha  occ. eigenvalues --   -0.45308  -0.44835  -0.44366  -0.44218  -0.43752
 Alpha  occ. eigenvalues --   -0.43493  -0.42975  -0.42223  -0.41761  -0.41616
 Alpha  occ. eigenvalues --   -0.40683  -0.40106  -0.39441  -0.39130  -0.39033
 Alpha  occ. eigenvalues --   -0.38767  -0.38448  -0.38226  -0.37386  -0.37021
 Alpha  occ. eigenvalues --   -0.36894  -0.36554  -0.36211  -0.35500  -0.35168
 Alpha  occ. eigenvalues --   -0.34752  -0.34194  -0.33929  -0.33598  -0.33220
 Alpha  occ. eigenvalues --   -0.32864  -0.32546  -0.32299  -0.31721  -0.30334
 Alpha  occ. eigenvalues --   -0.30013  -0.28936  -0.27824  -0.27534  -0.26991
 Alpha  occ. eigenvalues --   -0.22567  -0.21354  -0.20706
 Alpha virt. eigenvalues --   -0.04255  -0.02260  -0.00998   0.00834   0.01632
 Alpha virt. eigenvalues --    0.01884   0.02255   0.03094   0.03230   0.04921
 Alpha virt. eigenvalues --    0.05795   0.07366   0.07573   0.07732   0.07827

  Beta  occ. eigenvalues --  -77.26294 -19.25597 -19.14294 -19.12960 -14.43320
  Beta  occ. eigenvalues --  -14.43131 -10.31760 -10.29063 -10.28560 -10.26210
  Beta  occ. eigenvalues --  -10.25426 -10.25389 -10.25200 -10.24874 -10.24230
  Beta  occ. eigenvalues --  -10.24159 -10.24124 -10.23774 -10.21034 -10.21011
  Beta  occ. eigenvalues --  -10.20988 -10.20920 -10.20803 -10.20694 -10.20328
  Beta  occ. eigenvalues --  -10.20008  -6.63733  -4.77387  -4.77306  -4.77125
  Beta  occ. eigenvalues --   -3.05882  -1.89443  -1.88441  -1.88254  -1.13126
  Beta  occ. eigenvalues --   -1.00971  -0.96999  -0.92570  -0.85420  -0.84096
  Beta  occ. eigenvalues --   -0.83635  -0.83503  -0.82859  -0.77892  -0.77197
  Beta  occ. eigenvalues --   -0.74329  -0.70729  -0.70579  -0.70292  -0.69735
  Beta  occ. eigenvalues --   -0.69296  -0.66287  -0.66149  -0.63417  -0.62269
  Beta  occ. eigenvalues --   -0.57836  -0.57550  -0.56328  -0.53643  -0.53242
  Beta  occ. eigenvalues --   -0.52255  -0.51332  -0.50687  -0.48575  -0.47905
  Beta  occ. eigenvalues --   -0.47443  -0.46493  -0.46153  -0.46013  -0.45661
  Beta  occ. eigenvalues --   -0.45261  -0.44771  -0.44379  -0.44194  -0.43735
  Beta  occ. eigenvalues --   -0.43497  -0.42945  -0.42183  -0.41740  -0.41565
  Beta  occ. eigenvalues --   -0.40606  -0.40084  -0.39434  -0.39117  -0.38729
  Beta  occ. eigenvalues --   -0.38597  -0.38379  -0.38192  -0.37268  -0.36829
  Beta  occ. eigenvalues --   -0.36569  -0.36434  -0.36031  -0.35325  -0.34963
  Beta  occ. eigenvalues --   -0.34673  -0.33917  -0.33826  -0.33266  -0.33110
  Beta  occ. eigenvalues --   -0.32593  -0.31977  -0.31454  -0.30468  -0.29102
  Beta  occ. eigenvalues --   -0.28513  -0.27307  -0.27176  -0.26952  -0.25660
  Beta  occ. eigenvalues --   -0.22046  -0.19491
  Beta virt. eigenvalues --   -0.07059  -0.04173  -0.02256  -0.00437   0.00878
  Beta virt. eigenvalues --    0.01703   0.02021   0.02365   0.03156   0.03267
  Beta virt. eigenvalues --    0.05263   0.05883   0.07445   0.07604   0.07748

 Mulliken charges and spin densities:
               1          2
     1  N   -0.169202  -0.002157
     2  C    0.089179  -0.003390
     3  C    0.081808  -0.003204
     4  C   -0.153060   0.000176
     5  C   -0.128169  -0.000821
     6  C   -0.140196  -0.000044
     7  C   -0.085428   0.002837
     8  H    0.163595   0.000134
     9  H    0.164046   0.000061
    10  H    0.163874  -0.000126
    11  C   -0.229480   0.000617
    12  N   -0.228453   0.022071
    13  H    0.131308  -0.000739
    14  H    0.172302  -0.000219
    15  H    0.176581  -0.000207
    16  P    0.201681   0.013274
    17  H    0.153215  -0.000277
    18  Ru   0.596386   0.303510
    19  C   -0.101184  -0.000032
    20  C   -0.005849   0.004526
    21  C   -0.107956  -0.001519
    22  C   -0.015878  -0.000718
    23  C   -0.358157   0.007912
    24  C   -0.342328  -0.000422
    25  C   -0.328203   0.001611
    26  C   -0.348603  -0.000503
    27  C   -0.331610  -0.000096
    28  C   -0.346526   0.000594
    29  C   -0.090462  -0.026746
    30  O   -0.274070  -0.010106
    31  H    0.147737   0.000650
    32  C   -0.324200   0.001218
    33  H    0.139836   0.000534
    34  H    0.137289   0.001240
    35  C   -0.349343   0.018092
    36  H    0.120128   0.006098
    37  O   -0.662180   0.674962
    38  O   -0.698501  -0.005285
    39  H    0.141934  -0.005924
    40  H    0.111814  -0.000119
    41  H    0.117243   0.000241
    42  H    0.116795   0.000141
    43  H    0.109917  -0.000072
    44  H    0.110815  -0.000068
    45  H    0.108786   0.000579
    46  H    0.117007   0.000050
    47  H    0.137334  -0.002032
    48  H    0.109916   0.000643
    49  H    0.126097   0.000228
    50  H    0.123858  -0.000014
    51  H    0.110904   0.000732
    52  H    0.125154  -0.000127
    53  H    0.115863  -0.000073
    54  H    0.120689  -0.000008
    55  H    0.110608   0.000013
    56  H    0.120123  -0.000017
    57  H    0.121738  -0.000016
    58  H    0.135227   0.000317
    59  H    0.109930  -0.000000
    60  H    0.115182   0.000010
    61  H    0.144452   0.000235
    62  H    0.120207   0.000021
    63  H    0.298482   0.001755
 Sum of Mulliken charges =  -0.00000   1.00000

 Dipole moment (field-independent basis, Debye):
    X=             -0.1104    Y=             12.5537    Z=              1.4236  Tot=             12.6347
 Quadrupole moment (field-independent basis, Debye-Ang):
   XX=           -142.7447   YY=           -184.0528   ZZ=           -199.4767
   XY=             -3.3628   XZ=             -6.2264   YZ=             -0.5193

 Normal termination of Gaussian 16 at Fri Aug 28 20:17:05 2020.
