 Gaussian 16, Revision A.03,
 Gaussian 16:  ES64L-G16RevA.03 25-Dec-2016

 ----------------------------------------------------------------------
 # genecp pbe1pbe EmpiricalDispersion=GD3BJ scrf=(SMD,solvent=water) td
 =nstates=25 geom=allcheck
 ----------------------------------------------------------------------

 Structure from the checkpoint file:  "/scratch/js1212.745063/G-Mono-D-0-GP-TD-SMD.chk"
 -------------------
 Title Card Required
 -------------------
 Charge =  0 Multiplicity = 2

                         Standard orientation:
 ---------------------------------------------------------------------
 Center     Atomic      Atomic             Coordinates (Angstroms)
 Number     Number       Type             X           Y           Z
 ---------------------------------------------------------------------
      1          1           0       -3.521465   -3.331803    1.914756
      2          6           0       -3.212729   -2.739245    1.041029
      3          1           0       -3.905990   -2.979921    0.220155
      4          1           0       -2.191157   -3.048290    0.763975
      5          1           0        1.938257   -0.693284    2.691784
      6          8           0       -0.164591   -2.377542    0.902228
      7          1           0        2.965314   -2.607302    0.755019
      8          8           0       -0.511427   -0.095343    2.169226
      9          6           0       -3.228181   -1.273565    1.416112
     10          1           0        3.269956    0.297602    3.346645
     11          1           0       -4.252134   -0.937616    1.669512
     12          6           0        2.882370   -0.191692    2.437679
     13          1           0        1.614189   -2.865208   -0.350157
     14          1           0        3.618340   -0.948307    2.127739
     15          1           0       -2.587142   -1.097749    2.291488
     16          6           0        2.681297   -2.599124   -0.307463
     17          1           0        3.275965   -3.373048   -0.820875
     18          1           0       -2.304734    0.980167    1.862280
     19         44           0       -0.409862   -0.622549    0.173042
     20          1           0        0.700349    1.439405    2.156697
     21          7           0       -2.673066   -0.386672    0.367743
     22          6           0       -2.744641    1.007940    0.850025
     23          6           0        2.645644    0.867334    1.360162
     24          1           0        2.101880    2.348807    2.810985
     25          1           0        4.812598   -0.983976    0.212334
     26          6           0        1.660583    1.913694    1.898235
     27          6           0        2.972370   -1.241338   -0.956976
     28         15           0        1.802649    0.003250   -0.108293
     29          1           0       -3.782482    1.375459    0.902622
     30          6           0        4.461919   -0.927273   -0.826157
     31          1           0       -3.128098   -1.538563   -1.312050
     32          1           0       -5.392323   -1.049300   -0.308242
     33          1           0        5.021525   -1.685842   -1.398397
     34          6           0       -3.359461   -0.534179   -0.935899
     35          1           0        4.218570    2.227029    1.875010
     36          6           0       -0.540360   -1.262668   -1.543684
     37          6           0        3.947877    1.594766    1.013313
     38          1           0        1.595232   -1.505928   -2.664018
     39          6           0        2.651591   -1.307839   -2.452282
     40          1           0        4.792628    0.925582    0.823272
     41          1           0        3.229186   -2.139336   -2.888260
     42          6           0       -1.881274    1.925413    0.038821
     43          7           0       -0.706858    1.387784   -0.337819
     44          6           0       -4.864976   -0.317998   -0.937941
     45          1           0        1.511746    2.741695    1.187751
     46          1           0       -2.877265    0.172664   -1.628166
     47          1           0        4.726529    0.057217   -1.238582
     48          1           0       -5.153592    0.690642   -0.606411
     49          6           0        1.501745    1.404978   -1.317215
     50          1           0       -5.237155   -0.440304   -1.966092
     51          1           0        3.837827    2.269390    0.149775
     52          6           0        0.230219    2.123639   -0.965636
     53          6           0       -2.181262    3.252783   -0.245054
     54          1           0        2.957429   -0.391326   -2.980355
     55          1           0       -3.141834    3.670745    0.058058
     56          1           0        1.366620    0.922025   -2.298505
     57          1           0        2.344198    2.105825   -1.406536
     58          6           0       -0.008504    3.464227   -1.258726
     59          6           0       -1.229624    4.030100   -0.901447
     60          1           0        0.757798    4.053573   -1.763328
     61          1           0       -1.436849    5.076894   -1.130273
     62          8           0       -0.710292   -1.722574   -2.599143
     63          1           0       -0.307399   -0.978066    2.521579
 ---------------------------------------------------------------------

 SCF Done:  E(UPBE1PBE) =  -1554.03563875     A.U. after   26 cycles

 Excitation energies and oscillator strengths:

 Excited State   1:  2.009-A      0.6895 eV 1798.25 nm  f=0.0002  <S**2>=0.759
    103B ->113B       -0.11623
    109B ->113B       -0.16047
    112B ->113B        0.95279
    112B ->114B       -0.18824
 This state for optimization and/or second-order correction.
 Total Energy, E(TD-HF/TD-DFT) =  -1554.01030119
 Copying the excited state density for this state as the 1-particle RhoCI density.

 Excited State   2:  2.049-A      2.4323 eV  509.75 nm  f=0.0056  <S**2>=0.800
    106B ->113B        0.11441
    111B ->113B        0.95968
    111B ->114B       -0.13175

 Excited State   3:  2.957-A      2.9442 eV  421.12 nm  f=0.0036  <S**2>=1.936
    112A ->114A       -0.10029
    112A ->116A        0.22467
    113A ->114A        0.21102
    113A ->116A       -0.12172
    105B ->113B        0.22484
    109B ->113B       -0.17812
    110B ->113B        0.45108
    112B ->113B       -0.16317
    112B ->114B       -0.45671
    112B ->116B        0.47784

 Excited State   4:  2.548-A      2.9772 eV  416.44 nm  f=0.0136  <S**2>=1.373
    111A ->116A       -0.10809
    112A ->116A        0.26763
    113A ->114A       -0.20975
    113A ->115A       -0.11287
    113A ->116A        0.49998
    105B ->113B        0.42966
    106B ->113B       -0.10491
    109B ->113B        0.17911
    110B ->113B        0.41351
    112B ->114B        0.20949
    112B ->116B       -0.21724

 Excited State   5:  2.080-A      2.9988 eV  413.45 nm  f=0.0184  <S**2>=0.832
    111A ->116A        0.11609
    112A ->116A       -0.31399
    113A ->116A       -0.28047
    105B ->113B        0.76510
    105B ->114B       -0.15084
    106B ->113B       -0.14367
    110B ->113B       -0.25016

 Excited State   6:  3.298-A      3.1075 eV  398.98 nm  f=0.0035  <S**2>=2.469
    109A ->115A        0.13328
    112A ->114A        0.10300
    112A ->116A        0.12548
    113A ->114A       -0.32298
    113A ->116A       -0.26509
    108B ->115B       -0.13761
    109B ->113B       -0.17550
    109B ->114B        0.15402
    110B ->113B        0.11898
    112B ->114B        0.57612
    112B ->116B        0.47229

 Excited State   7:  2.456-A      3.1785 eV  390.07 nm  f=0.0265  <S**2>=1.258
    112A ->114A       -0.23357
    112A ->115A       -0.12649
    112A ->116A        0.62011
    105B ->113B        0.13311
    110B ->113B       -0.58855
    110B ->114B        0.10941
    111B ->116B        0.16182
    112B ->116B        0.10958

 Excited State   8:  2.319-A      3.3465 eV  370.49 nm  f=0.0077  <S**2>=1.095
    112A ->116A        0.15092
    113A ->114A        0.10735
    113A ->116A       -0.27375
    103B ->113B        0.20912
    106B ->113B       -0.13056
    108B ->113B        0.16909
    109B ->113B        0.79506
    109B ->114B       -0.11583
    112B ->113B        0.17812
    112B ->116B        0.21197

 Excited State   9:  2.290-A      3.5044 eV  353.80 nm  f=0.0399  <S**2>=1.061
    111A ->116A       -0.21303
    112A ->114A        0.15347
    112A ->116A        0.20770
    113A ->114A        0.67976
    113A ->116A       -0.18053
    109B ->113B       -0.13245
    112B ->114B        0.43921
    112B ->116B       -0.24610
    112B ->118B       -0.11837

 Excited State  10:  2.421-A      3.5585 eV  348.42 nm  f=0.0158  <S**2>=1.215
    111A ->116A       -0.10655
    112A ->114A        0.82115
    113A ->114A        0.11092
    113A ->116A        0.30358
    110B ->113B       -0.18078
    111B ->114B        0.11346
    112B ->114B       -0.17630
    112B ->116B        0.22338

 Excited State  11:  3.139-A      3.5850 eV  345.84 nm  f=0.0091  <S**2>=2.213
    105A ->116A       -0.10021
    107A ->116A       -0.11516
    111A ->114A       -0.17866
    111A ->116A        0.51246
    112A ->114A        0.11271
    113A ->114A        0.25867
    113A ->116A        0.14681
    106B ->116B        0.11000
    110B ->116B        0.10420
    111B ->114B       -0.33426
    111B ->116B        0.53004
    112B ->114B        0.17055
    112B ->116B        0.12515

 Excited State  12:  2.268-A      3.6252 eV  342.01 nm  f=0.0071  <S**2>=1.036
    111A ->116A       -0.14629
    112A ->114A       -0.33720
    112A ->116A       -0.34187
    113A ->114A        0.22407
    113A ->115A       -0.10632
    113A ->116A        0.45503
    110B ->113B       -0.13697
    111B ->116B       -0.18422
    112B ->114B        0.26449
    112B ->115B       -0.14855
    112B ->116B        0.45045

 Excited State  13:  3.357-A      3.7176 eV  333.51 nm  f=0.0018  <S**2>=2.567
    109A ->115A       -0.11376
    112A ->115A        0.11777
    112A ->118A        0.22669
    113A ->115A       -0.13604
    113A ->118A       -0.26985
    113A ->119A        0.17960
    108B ->115B        0.11292
    111B ->116B       -0.12570
    112B ->115B        0.52662
    112B ->118B        0.49713
    112B ->119B       -0.22130
    112B ->121B       -0.16782

 Excited State  14:  2.941-A      3.7795 eV  328.04 nm  f=0.0118  <S**2>=1.912
    109A ->114A       -0.11290
    111A ->116A        0.29332
    112A ->114A       -0.12569
    113A ->114A        0.13950
    108B ->114B        0.11925
    111B ->113B        0.14664
    111B ->114B        0.85295
    111B ->116B        0.10327

 Excited State  15:  3.078-A      3.8600 eV  321.20 nm  f=0.0006  <S**2>=2.119
    109A ->114A        0.11865
    109A ->115A       -0.11947
    111A ->114A       -0.30032
    111A ->116A        0.11401
    112A ->118A       -0.13701
    113A ->114A       -0.11518
    113A ->118A        0.16915
    113A ->119A       -0.21644
    108B ->115B        0.12180
    111B ->114B        0.19049
    112B ->115B        0.60630
    112B ->116B        0.13458
    112B ->118B       -0.27220
    112B ->119B        0.31809

 Excited State  16:  3.265-A      3.8881 eV  318.88 nm  f=0.0013  <S**2>=2.416
    103A ->114A       -0.13894
    109A ->115A        0.34739
    110A ->114A        0.14460
    110A ->115A        0.16356
    111A ->114A        0.28997
    112A ->114A       -0.14495
    113A ->114A        0.28082
    113A ->115A       -0.10510
    102B ->114B       -0.13167
    107B ->115B        0.14059
    108B ->115B       -0.35315
    109B ->114B        0.14905
    109B ->115B        0.13681
    111B ->115B       -0.16774
    112B ->114B       -0.11772
    112B ->115B        0.41669
    112B ->120B       -0.10251

 Excited State  17:  2.839-A      3.9445 eV  314.32 nm  f=0.0102  <S**2>=1.765
    109A ->114A       -0.10404
    109A ->115A       -0.11300
    111A ->114A        0.71821
    113A ->114A       -0.12053
    113A ->119A       -0.13965
    108B ->114B        0.11442
    108B ->115B        0.12815
    111B ->116B        0.33589
    112B ->115B        0.11068
    112B ->117B       -0.12413
    112B ->119B        0.30550

 Excited State  18:  3.292-A      4.0005 eV  309.92 nm  f=0.0029  <S**2>=2.459
    109A ->115A        0.18032
    111A ->114A       -0.21567
    112A ->114A       -0.11920
    112A ->118A        0.11674
    112A ->119A        0.11718
    113A ->114A        0.17167
    113A ->115A       -0.12988
    113A ->117A        0.12580
    113A ->118A       -0.13964
    113A ->119A       -0.20880
    108B ->115B       -0.19285
    112B ->115B       -0.20907
    112B ->117B       -0.25001
    112B ->118B        0.30471
    112B ->119B        0.48803
    112B ->120B        0.11065
    112B ->121B       -0.14444
    112B ->123B       -0.12311
    112B ->124B       -0.17059

 Excited State  19:  2.166-A      4.0690 eV  304.70 nm  f=0.0112  <S**2>=0.923
    111A ->114A       -0.30916
    111A ->115A        0.16145
    111A ->116A       -0.53316
    112A ->115A        0.14740
    112A ->116A       -0.16680
    111B ->114B        0.20322
    111B ->115B       -0.13823
    111B ->116B        0.56226

 Excited State  20:  2.658-A      4.1077 eV  301.84 nm  f=0.0017  <S**2>=1.516
    109A ->114A       -0.18938
    109A ->115A        0.10180
    111A ->114A       -0.23046
    111A ->116A       -0.13748
    113A ->115A        0.74812
    113A ->116A        0.16705
    107B ->114B       -0.11826
    108B ->113B        0.19256
    108B ->114B        0.27789
    112B ->115B        0.19914
    112B ->118B        0.14525
    112B ->119B        0.10949

 Excited State  21:  3.316-A      4.1477 eV  298.92 nm  f=0.0002  <S**2>=2.499
    109A ->114A       -0.13514
    112A ->115A       -0.23807
    112A ->118A       -0.12674
    112A ->120A        0.11265
    113A ->117A        0.15421
    113A ->120A       -0.28940
    113A ->123A        0.20270
    113A ->124A        0.11417
    108B ->114B        0.14035
    111B ->115B       -0.12455
    111B ->118B       -0.11623
    112B ->117B       -0.19072
    112B ->118B       -0.19603
    112B ->119B       -0.35985
    112B ->120B        0.43971
    112B ->123B       -0.24976
    112B ->124B       -0.18918

 Excited State  22:  2.859-A      4.1847 eV  296.28 nm  f=0.0023  <S**2>=1.793
    109A ->114A        0.27845
    110A ->114A        0.14887
    111A ->114A        0.13068
    112A ->115A        0.52570
    112A ->117A       -0.12627
    112A ->118A        0.13356
    112A ->120A        0.13101
    112A ->123A       -0.12518
    113A ->115A        0.37318
    113A ->116A        0.12281
    113A ->118A        0.11943
    106B ->113B        0.10944
    107B ->113B        0.18593
    108B ->114B       -0.25866
    109B ->114B        0.11018
    112B ->118B       -0.15262
    112B ->119B       -0.16257
    112B ->120B        0.19454
    112B ->123B       -0.10892

 Excited State  23:  2.523-A      4.2205 eV  293.76 nm  f=0.0026  <S**2>=1.341
    109A ->114A       -0.22407
    111A ->114A       -0.11462
    112A ->115A        0.19240
    112A ->118A        0.17489
    112A ->119A        0.14584
    113A ->115A       -0.32648
    104B ->113B        0.13368
    106B ->113B        0.27193
    107B ->113B        0.50522
    107B ->114B       -0.12644
    108B ->113B        0.43624
    108B ->114B        0.14954
    110B ->113B        0.12562
    111B ->113B       -0.10348
    112B ->118B       -0.12253

 Excited State  24:  2.681-A      4.2700 eV  290.36 nm  f=0.0026  <S**2>=1.548
    109A ->114A       -0.29762
    110A ->114A       -0.13081
    112A ->115A        0.62240
    112A ->116A        0.12391
    113A ->115A       -0.17821
    106B ->113B       -0.23051
    107B ->113B       -0.43449
    108B ->114B        0.24069
    111B ->114B       -0.12038

 Excited State  25:  2.554-A      4.3369 eV  285.88 nm  f=0.0024  <S**2>=1.380
    112A ->115A        0.35772
    112A ->116A        0.16260
    112A ->117A        0.29460
    112A ->118A       -0.34043
    112A ->119A       -0.27961
    112A ->120A       -0.24289
    112A ->121A        0.13663
    112A ->123A        0.23476
    112A ->124A        0.17532
    113A ->120A       -0.17884
    113A ->123A        0.11772
    106B ->113B        0.10982
    107B ->113B        0.17843
    110B ->116B       -0.16106
    111B ->115B       -0.16980
    111B ->118B       -0.19562
    111B ->119B       -0.13335
    112B ->118B        0.14056
    112B ->119B        0.13115

 The electronic state is 2-A.
 Alpha  occ. eigenvalues --  -77.26283 -19.27116 -19.17371 -19.14554 -14.44240
 Alpha  occ. eigenvalues --  -14.44084 -10.32666 -10.29871 -10.29296 -10.26177
 Alpha  occ. eigenvalues --  -10.26056 -10.26016 -10.25644 -10.25636 -10.25085
 Alpha  occ. eigenvalues --  -10.24996 -10.24987 -10.24974 -10.21942 -10.21924
 Alpha  occ. eigenvalues --  -10.21915 -10.21702 -10.21687 -10.21394 -10.21286
 Alpha  occ. eigenvalues --  -10.20574  -6.64252  -4.77886  -4.77790  -4.77607
 Alpha  occ. eigenvalues --   -3.06991  -1.90206  -1.90111  -1.89777  -1.13655
 Alpha  occ. eigenvalues --   -1.01131  -0.97152  -0.92655  -0.88827  -0.85362
 Alpha  occ. eigenvalues --   -0.84011  -0.83603  -0.82738  -0.77956  -0.77195
 Alpha  occ. eigenvalues --   -0.74421  -0.70639  -0.70470  -0.70130  -0.69654
 Alpha  occ. eigenvalues --   -0.69018  -0.66358  -0.66115  -0.63392  -0.62362
 Alpha  occ. eigenvalues --   -0.57853  -0.57351  -0.56145  -0.53525  -0.53182
 Alpha  occ. eigenvalues --   -0.52220  -0.51244  -0.50203  -0.48790  -0.47846
 Alpha  occ. eigenvalues --   -0.46898  -0.46531  -0.46127  -0.45726  -0.45486
 Alpha  occ. eigenvalues --   -0.45209  -0.44657  -0.44359  -0.44179  -0.43653
 Alpha  occ. eigenvalues --   -0.43319  -0.43080  -0.41967  -0.41799  -0.41154
 Alpha  occ. eigenvalues --   -0.40889  -0.40303  -0.39651  -0.38908  -0.38623
 Alpha  occ. eigenvalues --   -0.38134  -0.37847  -0.37705  -0.37020  -0.36738
 Alpha  occ. eigenvalues --   -0.36405  -0.36063  -0.35774  -0.35339  -0.34995
 Alpha  occ. eigenvalues --   -0.34533  -0.34334  -0.33744  -0.33452  -0.33079
 Alpha  occ. eigenvalues --   -0.32776  -0.32131  -0.32061  -0.31697  -0.30478
 Alpha  occ. eigenvalues --   -0.29697  -0.28377  -0.27801  -0.26995  -0.26346
 Alpha  occ. eigenvalues --   -0.22218  -0.20913  -0.20558
 Alpha virt. eigenvalues --   -0.04001  -0.01989  -0.00892   0.01065   0.01756
 Alpha virt. eigenvalues --    0.02127   0.02773   0.03686   0.03911   0.05827
 Alpha virt. eigenvalues --    0.06739   0.08074   0.09104   0.09389   0.09752

  Beta  occ. eigenvalues --  -77.26281 -19.27146 -19.15532 -19.14575 -14.44265
  Beta  occ. eigenvalues --  -14.44017 -10.32702 -10.29867 -10.29291 -10.26180
  Beta  occ. eigenvalues --  -10.26042 -10.26016 -10.25645 -10.25638 -10.25086
  Beta  occ. eigenvalues --  -10.24996 -10.24988 -10.24972 -10.21942 -10.21918
  Beta  occ. eigenvalues --  -10.21914 -10.21701 -10.21688 -10.21389 -10.21263
  Beta  occ. eigenvalues --  -10.20575  -6.64249  -4.77884  -4.77790  -4.77598
  Beta  occ. eigenvalues --   -3.05626  -1.89233  -1.88278  -1.87956  -1.13713
  Beta  occ. eigenvalues --   -1.01126  -0.97068  -0.92603  -0.85384  -0.84127
  Beta  occ. eigenvalues --   -0.83592  -0.83475  -0.82705  -0.77931  -0.77173
  Beta  occ. eigenvalues --   -0.74405  -0.70621  -0.70452  -0.70123  -0.69644
  Beta  occ. eigenvalues --   -0.69015  -0.66326  -0.66099  -0.63366  -0.62340
  Beta  occ. eigenvalues --   -0.57855  -0.57379  -0.56130  -0.53505  -0.53154
  Beta  occ. eigenvalues --   -0.52174  -0.51187  -0.50157  -0.48774  -0.47827
  Beta  occ. eigenvalues --   -0.46861  -0.46549  -0.46080  -0.45723  -0.45440
  Beta  occ. eigenvalues --   -0.45220  -0.44630  -0.44289  -0.44180  -0.43608
  Beta  occ. eigenvalues --   -0.43284  -0.43039  -0.41947  -0.41755  -0.41054
  Beta  occ. eigenvalues --   -0.40854  -0.40161  -0.39636  -0.38887  -0.38509
  Beta  occ. eigenvalues --   -0.38074  -0.37766  -0.37568  -0.36894  -0.36578
  Beta  occ. eigenvalues --   -0.36145  -0.35967  -0.35676  -0.35232  -0.34726
  Beta  occ. eigenvalues --   -0.34431  -0.34222  -0.33710  -0.32997  -0.32878
  Beta  occ. eigenvalues --   -0.32490  -0.31983  -0.31321  -0.30337  -0.28467
  Beta  occ. eigenvalues --   -0.28242  -0.27467  -0.26926  -0.25973  -0.25190
  Beta  occ. eigenvalues --   -0.21558  -0.19357
  Beta virt. eigenvalues --   -0.06546  -0.03826  -0.01966  -0.00416   0.01108
  Beta virt. eigenvalues --    0.01835   0.02192   0.02943   0.03744   0.03977
  Beta virt. eigenvalues --    0.06089   0.07009   0.08142   0.09130   0.09437

 Mulliken charges and spin densities:
               1          2
     1  H    0.059436  -0.000337
     2  C   -0.112562   0.011591
     3  H    0.061644   0.000620
     4  H    0.105433  -0.000314
     5  H    0.084446   0.001084
     6  O   -0.520158   0.694478
     7  H    0.064238  -0.000012
     8  O   -0.488801  -0.005290
     9  C    0.009751  -0.000843
    10  H    0.050202  -0.000033
    11  H    0.053059   0.004132
    12  C   -0.020086  -0.000174
    13  H    0.104881   0.000028
    14  H    0.065900   0.000068
    15  H    0.080751   0.001072
    16  C   -0.026955   0.002497
    17  H    0.048054   0.000651
    18  H    0.127804  -0.000187
    19  Ru   0.065505   0.282898
    20  H    0.107575  -0.000025
    21  N   -0.389327   0.024785
    22  C    0.136138  -0.001010
    23  C   -0.450608  -0.000076
    24  H    0.042556  -0.000070
    25  H    0.066538  -0.000079
    26  C   -0.041909  -0.000172
    27  C   -0.459599   0.005155
    28  P    0.243473   0.012575
    29  H    0.074787  -0.000290
    30  C    0.002589   0.001839
    31  H    0.095471   0.000407
    32  H    0.065911  -0.000063
    33  H    0.051251   0.000690
    34  C   -0.038868  -0.000789
    35  H    0.047470  -0.000019
    36  C    0.023333  -0.021333
    37  C    0.000617   0.000157
    38  H    0.067977   0.000161
    39  C   -0.027879  -0.000081
    40  H    0.047173  -0.000022
    41  H    0.054961   0.000128
    42  C    0.037398   0.001670
    43  N   -0.327088  -0.008718
    44  C   -0.078265   0.000558
    45  H    0.060762   0.000010
    46  H    0.109520   0.000936
    47  H    0.058917  -0.000101
    48  H    0.065670  -0.000009
    49  C   -0.074112   0.001133
    50  H    0.064569   0.000160
    51  H    0.055939  -0.000070
    52  C    0.061573   0.001485
    53  C   -0.049631  -0.000301
    54  H    0.066844  -0.000025
    55  H    0.035971   0.000116
    56  H    0.125026   0.000153
    57  H    0.098302  -0.000161
    58  C   -0.045501  -0.000498
    59  C    0.086047  -0.000123
    60  H    0.037388  -0.000009
    61  H    0.049334   0.000018
    62  O   -0.173414  -0.009060
    63  H    0.202579  -0.000959
 Sum of Mulliken charges =  -0.00000   1.00000

 Dipole moment (field-independent basis, Debye):
    X=              0.2717    Y=             11.6381    Z=             -5.9592  Tot=             13.0779
 Quadrupole moment (field-independent basis, Debye-Ang):
   XX=           -144.4375   YY=           -183.6231   ZZ=           -197.4391
   XY=             -4.9598   XZ=             -4.6113   YZ=             -4.9162

 Normal termination of Gaussian 16 at Thu May 28 01:44:01 2020.
