 Gaussian 16, Revision A.03,
 Gaussian 16:  ES64L-G16RevA.03 25-Dec-2016

 ----------------------------------------------------------------------
 # genecp pbe1pbe EmpiricalDispersion=GD3BJ scrf=(SMD,solvent=water) ge
 om=allcheck
 ----------------------------------------------------------------------

 Structure from the checkpoint file:  "/scratch/js1212.771177/G-Mono-D-0-GP-SMD.chk"
 -------------------
 Title Card Required
 -------------------
 Charge =  0 Multiplicity = 2

                         Standard orientation:
 ---------------------------------------------------------------------
 Center     Atomic      Atomic             Coordinates (Angstroms)
 Number     Number       Type             X           Y           Z
 ---------------------------------------------------------------------
      1          1           0       -3.521465   -3.331803    1.914756
      2          6           0       -3.212729   -2.739245    1.041029
      3          1           0       -3.905990   -2.979921    0.220155
      4          1           0       -2.191157   -3.048290    0.763975
      5          1           0        1.938257   -0.693284    2.691784
      6          8           0       -0.164591   -2.377542    0.902228
      7          1           0        2.965314   -2.607302    0.755019
      8          8           0       -0.511427   -0.095343    2.169226
      9          6           0       -3.228181   -1.273565    1.416112
     10          1           0        3.269956    0.297602    3.346645
     11          1           0       -4.252134   -0.937616    1.669512
     12          6           0        2.882370   -0.191692    2.437679
     13          1           0        1.614189   -2.865208   -0.350157
     14          1           0        3.618340   -0.948307    2.127739
     15          1           0       -2.587142   -1.097749    2.291488
     16          6           0        2.681297   -2.599124   -0.307463
     17          1           0        3.275965   -3.373048   -0.820875
     18          1           0       -2.304734    0.980167    1.862280
     19         44           0       -0.409862   -0.622549    0.173042
     20          1           0        0.700349    1.439405    2.156697
     21          7           0       -2.673066   -0.386672    0.367743
     22          6           0       -2.744641    1.007940    0.850025
     23          6           0        2.645644    0.867334    1.360162
     24          1           0        2.101880    2.348807    2.810985
     25          1           0        4.812598   -0.983976    0.212334
     26          6           0        1.660583    1.913694    1.898235
     27          6           0        2.972370   -1.241338   -0.956976
     28         15           0        1.802649    0.003250   -0.108293
     29          1           0       -3.782482    1.375459    0.902622
     30          6           0        4.461919   -0.927273   -0.826157
     31          1           0       -3.128098   -1.538563   -1.312050
     32          1           0       -5.392323   -1.049300   -0.308242
     33          1           0        5.021525   -1.685842   -1.398397
     34          6           0       -3.359461   -0.534179   -0.935899
     35          1           0        4.218570    2.227029    1.875010
     36          6           0       -0.540360   -1.262668   -1.543684
     37          6           0        3.947877    1.594766    1.013313
     38          1           0        1.595232   -1.505928   -2.664018
     39          6           0        2.651591   -1.307839   -2.452282
     40          1           0        4.792628    0.925582    0.823272
     41          1           0        3.229186   -2.139336   -2.888260
     42          6           0       -1.881274    1.925413    0.038821
     43          7           0       -0.706858    1.387784   -0.337819
     44          6           0       -4.864976   -0.317998   -0.937941
     45          1           0        1.511746    2.741695    1.187751
     46          1           0       -2.877265    0.172664   -1.628166
     47          1           0        4.726529    0.057217   -1.238582
     48          1           0       -5.153592    0.690642   -0.606411
     49          6           0        1.501745    1.404978   -1.317215
     50          1           0       -5.237155   -0.440304   -1.966092
     51          1           0        3.837827    2.269390    0.149775
     52          6           0        0.230219    2.123639   -0.965636
     53          6           0       -2.181262    3.252783   -0.245054
     54          1           0        2.957429   -0.391326   -2.980355
     55          1           0       -3.141834    3.670745    0.058058
     56          1           0        1.366620    0.922025   -2.298505
     57          1           0        2.344198    2.105825   -1.406536
     58          6           0       -0.008504    3.464227   -1.258726
     59          6           0       -1.229624    4.030100   -0.901447
     60          1           0        0.757798    4.053573   -1.763328
     61          1           0       -1.436849    5.076894   -1.130273
     62          8           0       -0.710292   -1.722574   -2.599143
     63          1           0       -0.307399   -0.978066    2.521579
 ---------------------------------------------------------------------

 SCF Done:  E(UPBE1PBE) =  -1554.35102955     A.U. after   24 cycles

 The electronic state is 2-A.
 Alpha  occ. eigenvalues --  -77.26414 -19.25807 -19.15941 -19.13219 -14.43220
 Alpha  occ. eigenvalues --  -14.43201 -10.31981 -10.29168 -10.28587 -10.25589
 Alpha  occ. eigenvalues --  -10.25428 -10.25231 -10.25186 -10.24851 -10.24310
 Alpha  occ. eigenvalues --  -10.24210 -10.24194 -10.24173 -10.20961 -10.20941
 Alpha  occ. eigenvalues --  -10.20902 -10.20727 -10.20720 -10.20427 -10.20291
 Alpha  occ. eigenvalues --  -10.19675  -6.63835  -4.77498  -4.77399  -4.77228
 Alpha  occ. eigenvalues --   -3.07272  -1.90472  -1.90354  -1.90037  -1.13375
 Alpha  occ. eigenvalues --   -1.00938  -0.97051  -0.92893  -0.88838  -0.85309
 Alpha  occ. eigenvalues --   -0.83877  -0.83517  -0.82748  -0.77977  -0.77169
 Alpha  occ. eigenvalues --   -0.74353  -0.70662  -0.70483  -0.70165  -0.69706
 Alpha  occ. eigenvalues --   -0.69086  -0.66358  -0.66073  -0.63368  -0.62332
 Alpha  occ. eigenvalues --   -0.57931  -0.57416  -0.56221  -0.53598  -0.53259
 Alpha  occ. eigenvalues --   -0.52345  -0.51380  -0.50333  -0.48920  -0.47921
 Alpha  occ. eigenvalues --   -0.47055  -0.46718  -0.46264  -0.45882  -0.45660
 Alpha  occ. eigenvalues --   -0.45415  -0.44799  -0.44533  -0.44362  -0.43814
 Alpha  occ. eigenvalues --   -0.43476  -0.43202  -0.42104  -0.42004  -0.41319
 Alpha  occ. eigenvalues --   -0.41135  -0.40487  -0.39849  -0.39034  -0.38808
 Alpha  occ. eigenvalues --   -0.38309  -0.38050  -0.37892  -0.37150  -0.36930
 Alpha  occ. eigenvalues --   -0.36583  -0.36229  -0.35946  -0.35470  -0.35195
 Alpha  occ. eigenvalues --   -0.34716  -0.34506  -0.33934  -0.33637  -0.33266
 Alpha  occ. eigenvalues --   -0.32976  -0.32338  -0.32207  -0.31980  -0.30643
 Alpha  occ. eigenvalues --   -0.29895  -0.28606  -0.28007  -0.27188  -0.26685
 Alpha  occ. eigenvalues --   -0.22669  -0.21190  -0.20882
 Alpha virt. eigenvalues --   -0.04313  -0.02308  -0.01188   0.00840   0.01453
 Alpha virt. eigenvalues --    0.01769   0.02468   0.03206   0.03273   0.05100
 Alpha virt. eigenvalues --    0.06040   0.07081   0.07458   0.07830   0.08059

  Beta  occ. eigenvalues --  -77.26411 -19.25838 -19.14099 -19.13240 -14.43226
  Beta  occ. eigenvalues --  -14.43150 -10.32018 -10.29164 -10.28582 -10.25575
  Beta  occ. eigenvalues --  -10.25430 -10.25231 -10.25188 -10.24854 -10.24311
  Beta  occ. eigenvalues --  -10.24210 -10.24195 -10.24171 -10.20962 -10.20936
  Beta  occ. eigenvalues --  -10.20901 -10.20727 -10.20721 -10.20422 -10.20268
  Beta  occ. eigenvalues --  -10.19676  -6.63832  -4.77495  -4.77400  -4.77219
  Beta  occ. eigenvalues --   -3.05863  -1.89460  -1.88467  -1.88161  -1.13434
  Beta  occ. eigenvalues --   -1.00931  -0.96967  -0.92850  -0.85331  -0.84046
  Beta  occ. eigenvalues --   -0.83537  -0.83495  -0.82717  -0.77952  -0.77148
  Beta  occ. eigenvalues --   -0.74337  -0.70645  -0.70464  -0.70158  -0.69696
  Beta  occ. eigenvalues --   -0.69082  -0.66325  -0.66057  -0.63341  -0.62308
  Beta  occ. eigenvalues --   -0.57931  -0.57449  -0.56205  -0.53577  -0.53230
  Beta  occ. eigenvalues --   -0.52296  -0.51322  -0.50286  -0.48904  -0.47901
  Beta  occ. eigenvalues --   -0.47016  -0.46739  -0.46215  -0.45880  -0.45620
  Beta  occ. eigenvalues --   -0.45423  -0.44782  -0.44459  -0.44355  -0.43764
  Beta  occ. eigenvalues --   -0.43449  -0.43150  -0.42085  -0.41958  -0.41225
  Beta  occ. eigenvalues --   -0.41090  -0.40347  -0.39834  -0.39013  -0.38693
  Beta  occ. eigenvalues --   -0.38256  -0.37957  -0.37766  -0.37018  -0.36766
  Beta  occ. eigenvalues --   -0.36324  -0.36150  -0.35831  -0.35363  -0.34922
  Beta  occ. eigenvalues --   -0.34604  -0.34395  -0.33897  -0.33152  -0.33040
  Beta  occ. eigenvalues --   -0.32659  -0.32135  -0.31663  -0.30492  -0.28761
  Beta  occ. eigenvalues --   -0.28533  -0.27592  -0.27088  -0.26335  -0.25403
  Beta  occ. eigenvalues --   -0.21999  -0.19741
  Beta virt. eigenvalues --   -0.06898  -0.04136  -0.02284  -0.00705   0.00880
  Beta virt. eigenvalues --    0.01532   0.01837   0.02624   0.03265   0.03311
  Beta virt. eigenvalues --    0.05361   0.06249   0.07110   0.07474   0.07858

 Mulliken charges and spin densities:
               1          2
     1  H    0.116957  -0.000293
     2  C   -0.352341   0.013576
     3  H    0.109749   0.000657
     4  H    0.140245  -0.003698
     5  H    0.134448   0.000926
     6  O   -0.657451   0.675534
     7  H    0.122487  -0.000036
     8  O   -0.715809  -0.004834
     9  C   -0.119399  -0.001392
    10  H    0.108236  -0.000000
    11  H    0.120950   0.004708
    12  C   -0.347884  -0.000211
    13  H    0.140220  -0.001168
    14  H    0.123477   0.000046
    15  H    0.147487   0.001198
    16  C   -0.346524   0.003509
    17  H    0.110157   0.000658
    18  H    0.187104  -0.000305
    19  Ru   0.751438   0.306688
    20  H    0.164002  -0.000124
    21  N   -0.205671   0.025057
    22  C   -0.114012  -0.000225
    23  C    0.007705   0.001059
    24  H    0.105811  -0.000086
    25  H    0.120643  -0.000091
    26  C   -0.390688  -0.000464
    27  C   -0.000982   0.007484
    28  P    0.123599   0.010413
    29  H    0.129347  -0.000398
    30  C   -0.330869   0.001939
    31  H    0.129540   0.000310
    32  H    0.112852  -0.000057
    33  H    0.110797   0.000749
    34  C   -0.111956  -0.000447
    35  H    0.110507   0.000053
    36  C   -0.124185  -0.024747
    37  C   -0.329782   0.000075
    38  H    0.142003   0.000092
    39  C   -0.360273   0.000004
    40  H    0.120514  -0.000028
    41  H    0.109394   0.000168
    42  C    0.124712  -0.002192
    43  N   -0.153492  -0.003662
    44  C   -0.323765   0.000634
    45  H    0.114484  -0.000003
    46  H    0.144866   0.000644
    47  H    0.114808  -0.000108
    48  H    0.112108  -0.000030
    49  C   -0.215655   0.000311
    50  H    0.117960   0.000159
    51  H    0.117528  -0.000051
    52  C    0.044415  -0.001060
    53  C   -0.159145  -0.000284
    54  H    0.113751  -0.000036
    55  H    0.163440   0.000096
    56  H    0.166691   0.000136
    57  H    0.150013   0.000009
    58  C   -0.133097  -0.000529
    59  C   -0.128220   0.000016
    60  H    0.165739  -0.000049
    61  H    0.164274   0.000026
    62  O   -0.275191  -0.009862
    63  H    0.281936  -0.000463
 Sum of Mulliken charges =  -0.00000   1.00000

 Dipole moment (field-independent basis, Debye):
    X=              0.2323    Y=             11.9011    Z=             -6.0266  Tot=             13.3421
 Quadrupole moment (field-independent basis, Debye-Ang):
   XX=           -145.4083   YY=           -185.1460   ZZ=           -199.3012
   XY=             -4.9928   XZ=             -4.7229   YZ=             -5.1442

 Normal termination of Gaussian 16 at Fri Aug 28 19:54:59 2020.
