 Gaussian 16, Revision A.03,
 Gaussian 16:  ES64L-G16RevA.03 25-Dec-2016

 ----------------------------------------------------------------------
 # nmr genecp pbe1pbe EmpiricalDispersion=GD3BJ scrf=(SMD,solvent=water
 ) geom=allcheck
 ----------------------------------------------------------------------

 Structure from the checkpoint file:  "/scratch/js1212.15145/2-Full-Trans-A-GPOF.chk"
 -------------------
 Title Card Required
 -------------------
 Charge =  0 Multiplicity = 1

                         Standard orientation:
 ---------------------------------------------------------------------
 Center     Atomic      Atomic             Coordinates (Angstroms)
 Number     Number       Type             X           Y           Z
 ---------------------------------------------------------------------
      1          7           0       -0.800079    1.422012   -0.041372
      2          6           0       -2.015293    1.842050    0.333136
      3          6           0        0.087098    2.253074   -0.611386
      4          6           0       -2.406121    3.163885    0.157470
      5          6           0       -1.492806    4.052891   -0.406592
      6          6           0       -0.236060    3.598147   -0.792747
      7          6           0       -2.836142    0.779311    0.995001
      8          1           0       -3.401920    3.488538    0.460792
      9          1           0       -1.764558    5.100066   -0.552391
     10          1           0        0.489990    4.273662   -1.246163
     11          6           0        1.380154    1.637238   -1.045646
     12          7           0       -2.674604   -0.529710    0.330049
     13          1           0       -3.895929    1.079202    1.061786
     14          1           0       -2.452279    0.656741    2.020862
     15          1           0        1.205324    1.245143   -2.063176
     16         15           0        1.728425    0.076187   -0.076043
     17          1           0        2.200108    2.369213   -1.066183
     18         44           0       -0.404396   -0.634172    0.122158
     19          6           0       -3.316767   -0.528891   -1.006096
     20          6           0        2.988400   -0.834830   -1.170467
     21          6           0       -3.238836   -1.554821    1.237719
     22          6           0        2.567977    0.669480    1.526729
     23          6           0        2.195570   -1.572199   -2.254481
     24          6           0        3.750769   -1.877866   -0.351066
     25          6           0        3.967210    0.123355   -1.854639
     26          6           0        1.663008    1.748440    2.131234
     27          6           0        3.958816    1.268265    1.324228
     28          6           0        2.622711   -0.501332    2.511984
     29          1           0       -0.384379   -0.557937    1.743760
     30          1           0       -2.723029    0.148521   -1.636366
     31          6           0       -4.803819   -0.214665   -1.044230
     32          1           0       -3.128001   -1.520549   -1.435864
     33          1           0       -2.595334   -1.547063    2.129124
     34          6           0       -3.294284   -2.950189    0.654665
     35          1           0       -4.254293   -1.245944    1.556197
     36          6           0        0.029664   -2.393158    0.335538
     37          8           0       -0.622227   -0.364299   -2.012517
     38          1           0       -0.673779   -1.236077   -2.419907
     39          1           0       -2.321065   -3.247014    0.240905
     40          1           0       -4.055020   -3.048759   -0.133460
     41          1           0       -3.552917   -3.661214    1.453012
     42          1           0       -5.157072   -0.323684   -2.080738
     43          1           0       -5.032484    0.817818   -0.738719
     44          1           0       -5.405410   -0.895162   -0.421142
     45          1           0        2.904345   -1.968492   -3.000880
     46          1           0        1.458530   -0.921121   -2.745631
     47          1           0        1.640345   -2.416988   -1.824519
     48          1           0        4.336951   -2.506362   -1.042229
     49          1           0        3.065234   -2.541784    0.196345
     50          1           0        4.455487   -1.431993    0.364281
     51          1           0        4.692695   -0.469255   -2.436925
     52          1           0        4.537085    0.741845   -1.150000
     53          1           0        3.453452    0.788738   -2.563694
     54          1           0        4.696633    0.528244    0.986588
     55          1           0        4.318020    1.670913    2.286397
     56          1           0        3.951270    2.103295    0.606320
     57          1           0        3.310396   -1.294196    2.191361
     58          1           0        1.621977   -0.939404    2.639461
     59          1           0        2.971385   -0.132285    3.491187
     60          1           0        2.063190    2.030449    3.119241
     61          1           0        0.638719    1.372955    2.265587
     62          1           0        1.630820    2.661040    1.516873
     63          8           0        0.361959   -3.498898    0.506357
 ---------------------------------------------------------------------

 SCF Done:  E(RPBE1PBE) =  -1479.81047321     A.U. after   17 cycles

      1  N    Isotropic =   -47.7162   Anisotropy =   393.3037

      2  C    Isotropic =    22.8847   Anisotropy =   169.0766

      3  C    Isotropic =    19.6147   Anisotropy =   180.2489

      4  C    Isotropic =    64.2501   Anisotropy =   168.9242

      5  C    Isotropic =    43.6365   Anisotropy =   206.1424

      6  C    Isotropic =    61.6775   Anisotropy =   168.0301

      7  C    Isotropic =   122.0262   Anisotropy =    48.1411

      8  H    Isotropic =    23.6574   Anisotropy =     7.1562

      9  H    Isotropic =    23.2105   Anisotropy =     4.3972

     10  H    Isotropic =    23.5070   Anisotropy =     8.3721

     11  C    Isotropic =   147.7592   Anisotropy =    43.9543

     12  N    Isotropic =   191.7155   Anisotropy =    77.1002

     13  H    Isotropic =    27.0075   Anisotropy =     8.4957

     14  H    Isotropic =    26.9762   Anisotropy =     4.3085

     15  H    Isotropic =    26.7482   Anisotropy =     2.8728

     16  P    Isotropic =   196.5847   Anisotropy =   235.9641

     17  H    Isotropic =    27.5289   Anisotropy =     8.1173

     18  Ru   Isotropic =  -387.3924   Anisotropy =   152.5973

     19  C    Isotropic =   142.5229   Anisotropy =    28.0269

     20  C    Isotropic =   145.3676   Anisotropy =    27.8993

     21  C    Isotropic =   130.2440   Anisotropy =    60.1199

     22  C    Isotropic =   146.7096   Anisotropy =    24.0624

     23  C    Isotropic =   155.9256   Anisotropy =    38.9102

     24  C    Isotropic =   158.2272   Anisotropy =    31.0395

     25  C    Isotropic =   160.4094   Anisotropy =    37.5370

     26  C    Isotropic =   157.1129   Anisotropy =    35.5857

     27  C    Isotropic =   161.5945   Anisotropy =    31.0487

     28  C    Isotropic =   160.7361   Anisotropy =    33.9357

     29  H    Isotropic =    41.2355   Anisotropy =    13.8301

     30  H    Isotropic =    27.9255   Anisotropy =    11.3457

     31  C    Isotropic =   183.7170   Anisotropy =    12.3857

     32  H    Isotropic =    29.0221   Anisotropy =     4.5530

     33  H    Isotropic =    28.0429   Anisotropy =     5.1197

     34  C    Isotropic =   172.6948   Anisotropy =    19.8166

     35  H    Isotropic =    28.1233   Anisotropy =     8.6131

     36  C    Isotropic =   -47.1502   Anisotropy =   452.4006

     37  O    Isotropic =   356.3932   Anisotropy =   106.5731

     38  H    Isotropic =    34.0868   Anisotropy =    19.0242

     39  H    Isotropic =    29.5243   Anisotropy =     8.7048

     40  H    Isotropic =    29.9116   Anisotropy =     8.6555

     41  H    Isotropic =    29.9461   Anisotropy =    11.9365

     42  H    Isotropic =    30.8536   Anisotropy =    12.3302

     43  H    Isotropic =    30.3217   Anisotropy =     9.5085

     44  H    Isotropic =    30.3119   Anisotropy =     9.6391

     45  H    Isotropic =    30.5951   Anisotropy =    10.1222

     46  H    Isotropic =    28.3741   Anisotropy =     9.1152

     47  H    Isotropic =    29.7668   Anisotropy =     6.5494

     48  H    Isotropic =    30.2126   Anisotropy =    10.4293

     49  H    Isotropic =    29.7271   Anisotropy =     5.9979

     50  H    Isotropic =    29.5476   Anisotropy =     7.2097

     51  H    Isotropic =    30.4167   Anisotropy =    11.1891

     52  H    Isotropic =    29.3196   Anisotropy =     7.0984

     53  H    Isotropic =    29.9042   Anisotropy =     7.3612

     54  H    Isotropic =    29.5219   Anisotropy =     7.7980

     55  H    Isotropic =    30.2476   Anisotropy =    11.2313

     56  H    Isotropic =    29.6272   Anisotropy =     7.5034

     57  H    Isotropic =    29.8756   Anisotropy =     7.3426

     58  H    Isotropic =    29.3295   Anisotropy =     6.7002

     59  H    Isotropic =    30.7881   Anisotropy =    11.1707

     60  H    Isotropic =    31.1215   Anisotropy =    10.5273

     61  H    Isotropic =    29.9316   Anisotropy =     7.6177

     62  H    Isotropic =    30.9231   Anisotropy =     6.7728

     63  O    Isotropic =   -36.3992   Anisotropy =   570.8576

 The electronic state is 1-A.
 Alpha  occ. eigenvalues --  -77.25080 -19.23881 -19.12116 -14.42438 -14.42131
 Alpha  occ. eigenvalues --  -10.30418 -10.28644 -10.28177 -10.25675 -10.25042
 Alpha  occ. eigenvalues --  -10.24742 -10.24587 -10.24566 -10.23979 -10.23894
 Alpha  occ. eigenvalues --  -10.23667 -10.23196 -10.20781 -10.20779 -10.20718
 Alpha  occ. eigenvalues --  -10.20677 -10.20638 -10.20531 -10.20380 -10.20035
 Alpha  occ. eigenvalues --   -6.62487  -4.76166  -4.76075  -4.75842  -3.02630
 Alpha  occ. eigenvalues --   -1.87085  -1.85417  -1.84539  -1.11617  -1.00555
 Alpha  occ. eigenvalues --   -0.96455  -0.91179  -0.84924  -0.83605  -0.83140
 Alpha  occ. eigenvalues --   -0.82469  -0.77722  -0.76777  -0.73968  -0.70436
 Alpha  occ. eigenvalues --   -0.70354  -0.69945  -0.69463  -0.69135  -0.66038
 Alpha  occ. eigenvalues --   -0.65661  -0.63110  -0.61768  -0.57530  -0.56302
 Alpha  occ. eigenvalues --   -0.55879  -0.53235  -0.52796  -0.51908  -0.50938
 Alpha  occ. eigenvalues --   -0.50033  -0.48234  -0.47412  -0.46538  -0.45820
 Alpha  occ. eigenvalues --   -0.45728  -0.45544  -0.45214  -0.44615  -0.44239
 Alpha  occ. eigenvalues --   -0.43856  -0.43394  -0.43259  -0.42902  -0.42201
 Alpha  occ. eigenvalues --   -0.41645  -0.41356  -0.40992  -0.40164  -0.39769
 Alpha  occ. eigenvalues --   -0.39237  -0.38894  -0.38635  -0.38313  -0.38142
 Alpha  occ. eigenvalues --   -0.37970  -0.36758  -0.36599  -0.36373  -0.35980
 Alpha  occ. eigenvalues --   -0.35166  -0.35028  -0.34599  -0.33860  -0.33558
 Alpha  occ. eigenvalues --   -0.33141  -0.32662  -0.32440  -0.32079  -0.31441
 Alpha  occ. eigenvalues --   -0.31073  -0.29599  -0.26999  -0.26771  -0.25941
 Alpha  occ. eigenvalues --   -0.25213  -0.23575  -0.22421  -0.19393
 Alpha virt. eigenvalues --   -0.04069  -0.01960   0.00479   0.00967   0.01660
 Alpha virt. eigenvalues --    0.03066   0.03247   0.03985   0.04416   0.05741
 Alpha virt. eigenvalues --    0.06878   0.07358   0.07625   0.07873   0.07925

 Mulliken charges:
               1
     1  N   -0.125534
     2  C    0.090464
     3  C    0.036170
     4  C   -0.160842
     5  C   -0.127598
     6  C   -0.141985
     7  C   -0.093723
     8  H    0.161443
     9  H    0.162987
    10  H    0.161898
    11  C   -0.221423
    12  N   -0.203924
    13  H    0.125192
    14  H    0.168643
    15  H    0.170571
    16  P    0.149156
    17  H    0.145725
    18  Ru   0.497752
    19  C   -0.099128
    20  C   -0.010676
    21  C   -0.126840
    22  C   -0.002235
    23  C   -0.359897
    24  C   -0.341742
    25  C   -0.332336
    26  C   -0.354691
    27  C   -0.334719
    28  C   -0.347186
    29  H   -0.252047
    30  H    0.143081
    31  C   -0.324107
    32  H    0.126536
    33  H    0.145757
    34  C   -0.337143
    35  H    0.116681
    36  C   -0.148257
    37  O   -0.726387
    38  H    0.255131
    39  H    0.125075
    40  H    0.113422
    41  H    0.119082
    42  H    0.115631
    43  H    0.109054
    44  H    0.110006
    45  H    0.109370
    46  H    0.116986
    47  H    0.129381
    48  H    0.106871
    49  H    0.120135
    50  H    0.120966
    51  H    0.107306
    52  H    0.123443
    53  H    0.114550
    54  H    0.118997
    55  H    0.107393
    56  H    0.116351
    57  H    0.119409
    58  H    0.139085
    59  H    0.107247
    60  H    0.110824
    61  H    0.144971
    62  H    0.116389
    63  O   -0.306712
 Sum of Mulliken charges =  -0.00000

 Dipole moment (field-independent basis, Debye):
    X=             -1.2597    Y=              8.5425    Z=              1.5501  Tot=              8.7729
 Quadrupole moment (field-independent basis, Debye-Ang):
   XX=           -147.3749   YY=           -174.8906   ZZ=           -192.0114
   XY=              0.8119   XZ=             -8.0050   YZ=              2.4443

 Normal termination of Gaussian 16 at Sun Nov 11 15:47:38 2018.
