 Gaussian 16, Revision A.03,
 Gaussian 16:  ES64L-G16RevA.03 25-Dec-2016

 ----------------------------------------------------------------------
 # genecp pbe1pbe EmpiricalDispersion=GD3BJ scrf=(SMD,solvent=water) td
 =nstates=25 geom=allcheck
 ----------------------------------------------------------------------

 Structure from the checkpoint file:  "/scratch/js1212.1306235/2-Trans-A-GP-TD-SMD.chk"
 -------------------
 Title Card Required
 -------------------
 Charge =  0 Multiplicity = 1

                         Standard orientation:
 ---------------------------------------------------------------------
 Center     Atomic      Atomic             Coordinates (Angstroms)
 Number     Number       Type             X           Y           Z
 ---------------------------------------------------------------------
      1          7           0       -0.800079    1.422012   -0.041372
      2          6           0       -2.015293    1.842050    0.333136
      3          6           0        0.087098    2.253074   -0.611386
      4          6           0       -2.406121    3.163885    0.157470
      5          6           0       -1.492806    4.052891   -0.406592
      6          6           0       -0.236060    3.598147   -0.792747
      7          6           0       -2.836142    0.779311    0.995001
      8          1           0       -3.401920    3.488538    0.460792
      9          1           0       -1.764558    5.100066   -0.552391
     10          1           0        0.489990    4.273662   -1.246163
     11          6           0        1.380154    1.637238   -1.045646
     12          7           0       -2.674604   -0.529710    0.330049
     13          1           0       -3.895929    1.079202    1.061786
     14          1           0       -2.452279    0.656741    2.020862
     15          1           0        1.205324    1.245143   -2.063176
     16         15           0        1.728425    0.076187   -0.076043
     17          1           0        2.200108    2.369213   -1.066183
     18         44           0       -0.404396   -0.634172    0.122158
     19          6           0       -3.316767   -0.528891   -1.006096
     20          6           0        2.988400   -0.834830   -1.170467
     21          6           0       -3.238836   -1.554821    1.237719
     22          6           0        2.567977    0.669480    1.526729
     23          6           0        2.195570   -1.572199   -2.254481
     24          6           0        3.750769   -1.877866   -0.351066
     25          6           0        3.967210    0.123355   -1.854639
     26          6           0        1.663008    1.748440    2.131234
     27          6           0        3.958816    1.268265    1.324228
     28          6           0        2.622711   -0.501332    2.511984
     29          1           0       -0.384379   -0.557937    1.743760
     30          1           0       -2.723029    0.148521   -1.636366
     31          6           0       -4.803819   -0.214665   -1.044230
     32          1           0       -3.128001   -1.520549   -1.435864
     33          1           0       -2.595334   -1.547063    2.129124
     34          6           0       -3.294284   -2.950189    0.654665
     35          1           0       -4.254293   -1.245944    1.556197
     36          6           0        0.029664   -2.393158    0.335538
     37          8           0       -0.622227   -0.364299   -2.012517
     38          1           0       -0.673779   -1.236077   -2.419907
     39          1           0       -2.321065   -3.247014    0.240905
     40          1           0       -4.055020   -3.048759   -0.133460
     41          1           0       -3.552917   -3.661214    1.453012
     42          1           0       -5.157072   -0.323684   -2.080738
     43          1           0       -5.032484    0.817818   -0.738719
     44          1           0       -5.405410   -0.895162   -0.421142
     45          1           0        2.904345   -1.968492   -3.000880
     46          1           0        1.458530   -0.921121   -2.745631
     47          1           0        1.640345   -2.416988   -1.824519
     48          1           0        4.336951   -2.506362   -1.042229
     49          1           0        3.065234   -2.541784    0.196345
     50          1           0        4.455487   -1.431993    0.364281
     51          1           0        4.692695   -0.469255   -2.436925
     52          1           0        4.537085    0.741845   -1.150000
     53          1           0        3.453452    0.788738   -2.563694
     54          1           0        4.696633    0.528244    0.986588
     55          1           0        4.318020    1.670913    2.286397
     56          1           0        3.951270    2.103295    0.606320
     57          1           0        3.310396   -1.294196    2.191361
     58          1           0        1.621977   -0.939404    2.639461
     59          1           0        2.971385   -0.132285    3.491187
     60          1           0        2.063190    2.030449    3.119241
     61          1           0        0.638719    1.372955    2.265587
     62          1           0        1.630820    2.661040    1.516873
     63          8           0        0.361959   -3.498898    0.506357
 ---------------------------------------------------------------------

 SCF Done:  E(RPBE1PBE) =  -1479.51175872     A.U. after   16 cycles

 Excitation energies and oscillator strengths:

 Excited State   1:      Singlet-A      3.0618 eV  404.94 nm  f=0.0012  <S**2>=0.000
     109 ->110         0.69157
     109 ->113         0.11250
 This state for optimization and/or second-order correction.
 Total Energy, E(TD-HF/TD-DFT) =  -1479.39924070
 Copying the excited state density for this state as the 1-particle RhoCI density.

 Excited State   2:      Singlet-A      3.4764 eV  356.64 nm  f=0.0060  <S**2>=0.000
     109 ->110        -0.11932
     109 ->112         0.41515
     109 ->113         0.43814
     109 ->114        -0.22012
     109 ->115         0.12913
     109 ->118        -0.11948

 Excited State   3:      Singlet-A      3.7578 eV  329.94 nm  f=0.0020  <S**2>=0.000
     109 ->111         0.69619

 Excited State   4:      Singlet-A      4.0386 eV  307.00 nm  f=0.0625  <S**2>=0.000
     108 ->110         0.63546
     109 ->112         0.12392
     109 ->113        -0.17093
     109 ->114        -0.10767

 Excited State   5:      Singlet-A      4.0561 eV  305.67 nm  f=0.0100  <S**2>=0.000
     108 ->110         0.24237
     109 ->112        -0.33970
     109 ->113         0.40001
     109 ->114         0.28725
     109 ->117        -0.17840

 Excited State   6:      Singlet-A      4.3399 eV  285.69 nm  f=0.0164  <S**2>=0.000
     107 ->110         0.68445
     108 ->110         0.10821

 Excited State   7:      Singlet-A      4.4305 eV  279.84 nm  f=0.0009  <S**2>=0.000
     108 ->111         0.12660
     108 ->112         0.44782
     108 ->113         0.32049
     108 ->114        -0.29982
     108 ->115         0.13872
     109 ->118        -0.16236

 Excited State   8:      Singlet-A      4.6212 eV  268.30 nm  f=0.0002  <S**2>=0.000
     103 ->110         0.10846
     104 ->110         0.11661
     108 ->111         0.66835

 Excited State   9:      Singlet-A      4.6764 eV  265.13 nm  f=0.0093  <S**2>=0.000
     107 ->112         0.15609
     107 ->113         0.13417
     107 ->114        -0.10490
     108 ->113         0.10716
     109 ->112         0.30602
     109 ->114         0.47840
     109 ->117         0.16080
     109 ->118        -0.11069
     109 ->119        -0.14002

 Excited State  10:      Singlet-A      4.7187 eV  262.75 nm  f=0.0098  <S**2>=0.000
     106 ->110         0.17997
     107 ->112         0.38078
     107 ->113         0.20851
     107 ->114        -0.25758
     108 ->113         0.17497
     108 ->117        -0.10079
     109 ->112        -0.19371
     109 ->114        -0.23100

 Excited State  11:      Singlet-A      4.7877 eV  258.97 nm  f=0.0065  <S**2>=0.000
     106 ->110         0.66074
     107 ->112        -0.12236

 Excited State  12:      Singlet-A      4.8709 eV  254.54 nm  f=0.0018  <S**2>=0.000
     108 ->112         0.19963
     108 ->114        -0.19896
     109 ->115         0.23448
     109 ->117        -0.30479
     109 ->118         0.39841
     109 ->119        -0.12498

 Excited State  13:      Singlet-A      4.8830 eV  253.91 nm  f=0.0087  <S**2>=0.000
     105 ->110         0.19434
     107 ->113        -0.10491
     108 ->112        -0.10638
     108 ->113         0.42558
     108 ->114         0.21381
     108 ->119        -0.14467
     108 ->120         0.10339
     109 ->117        -0.31710

 Excited State  14:      Singlet-A      4.9070 eV  252.67 nm  f=0.0059  <S**2>=0.000
     105 ->110         0.65336
     108 ->113        -0.10385
     109 ->117         0.18170

 Excited State  15:      Singlet-A      4.9951 eV  248.21 nm  f=0.0082  <S**2>=0.000
     107 ->111         0.39197
     107 ->112         0.11342
     108 ->113        -0.15214
     109 ->115        -0.14978
     109 ->117        -0.34013
     109 ->118        -0.24055
     109 ->119         0.17500

 Excited State  16:      Singlet-A      5.0229 eV  246.84 nm  f=0.0025  <S**2>=0.000
     107 ->111         0.56839
     107 ->112        -0.14980
     108 ->113         0.12928
     109 ->115         0.10982
     109 ->117         0.16660
     109 ->118         0.17532
     109 ->119        -0.10897

 Excited State  17:      Singlet-A      5.2165 eV  237.68 nm  f=0.0039  <S**2>=0.000
     104 ->110         0.10182
     107 ->113        -0.13057
     109 ->112        -0.13704
     109 ->113        -0.16034
     109 ->115         0.53460
     109 ->118        -0.30068
     109 ->119        -0.11954

 Excited State  18:      Singlet-A      5.2396 eV  236.63 nm  f=0.0310  <S**2>=0.000
     103 ->110        -0.14908
     104 ->110         0.61782
     106 ->111        -0.12528
     109 ->115        -0.11050
     109 ->118         0.10474

 Excited State  19:      Singlet-A      5.2672 eV  235.39 nm  f=0.0406  <S**2>=0.000
     103 ->110         0.15918
     104 ->110         0.18101
     107 ->112        -0.13053
     107 ->113         0.41594
     107 ->114         0.13032
     107 ->117        -0.24429
     108 ->117        -0.13143
     108 ->118         0.17545
     109 ->117        -0.11077
     109 ->118        -0.17124

 Excited State  20:      Singlet-A      5.2848 eV  234.61 nm  f=0.0259  <S**2>=0.000
     101 ->111        -0.11071
     103 ->110         0.61482
     104 ->111        -0.10030
     106 ->111        -0.12311
     107 ->113        -0.15627
     108 ->111        -0.11246

 Excited State  21:      Singlet-A      5.3945 eV  229.83 nm  f=0.0126  <S**2>=0.000
     103 ->110         0.10338
     104 ->110         0.14160
     106 ->111         0.66775

 Excited State  22:      Singlet-A      5.4503 eV  227.48 nm  f=0.0099  <S**2>=0.000
     107 ->113        -0.20275
     108 ->112        -0.12706
     108 ->115         0.19026
     108 ->117        -0.23633
     108 ->118         0.41962
     108 ->119        -0.10444
     109 ->114         0.14606
     109 ->119         0.15659

 Excited State  23:      Singlet-A      5.4767 eV  226.39 nm  f=0.0028  <S**2>=0.000
     109 ->115         0.10575
     109 ->116         0.67466
     109 ->118         0.12148

 Excited State  24:      Singlet-A      5.5543 eV  223.22 nm  f=0.0008  <S**2>=0.000
     105 ->111         0.56157
     108 ->112         0.19153
     108 ->114         0.22875
     109 ->119         0.17979

 Excited State  25:      Singlet-A      5.5589 eV  223.04 nm  f=0.0004  <S**2>=0.000
     105 ->111         0.40204
     108 ->112        -0.31283
     108 ->113         0.12374
     108 ->114        -0.34216
     108 ->119         0.12509
     109 ->119        -0.17623

 The electronic state is 1-A.
 Alpha  occ. eigenvalues --  -77.25035 -19.25206 -19.13463 -14.43306 -14.43157
 Alpha  occ. eigenvalues --  -10.31165 -10.29350 -10.28887 -10.26456 -10.25823
 Alpha  occ. eigenvalues --  -10.25353 -10.25215 -10.25065 -10.24766 -10.24681
 Alpha  occ. eigenvalues --  -10.24428 -10.23980 -10.21763 -10.21762 -10.21728
 Alpha  occ. eigenvalues --  -10.21664 -10.21647 -10.21493 -10.21360 -10.20980
 Alpha  occ. eigenvalues --   -6.62983  -4.76630  -4.76538  -4.76307  -3.02413
 Alpha  occ. eigenvalues --   -1.86940  -1.85218  -1.84270  -1.11881  -1.00733
 Alpha  occ. eigenvalues --   -0.96567  -0.90871  -0.84975  -0.83728  -0.83226
 Alpha  occ. eigenvalues --   -0.82467  -0.77713  -0.76797  -0.74025  -0.70421
 Alpha  occ. eigenvalues --   -0.70350  -0.69907  -0.69423  -0.69087  -0.66024
 Alpha  occ. eigenvalues --   -0.65713  -0.63135  -0.61797  -0.57450  -0.56255
 Alpha  occ. eigenvalues --   -0.55810  -0.53157  -0.52718  -0.51802  -0.50807
 Alpha  occ. eigenvalues --   -0.49897  -0.48121  -0.47327  -0.46415  -0.45671
 Alpha  occ. eigenvalues --   -0.45581  -0.45416  -0.45059  -0.44425  -0.44094
 Alpha  occ. eigenvalues --   -0.43681  -0.43184  -0.43084  -0.42699  -0.42068
 Alpha  occ. eigenvalues --   -0.41477  -0.41209  -0.40857  -0.39884  -0.39544
 Alpha  occ. eigenvalues --   -0.39052  -0.38716  -0.38471  -0.38138  -0.37968
 Alpha  occ. eigenvalues --   -0.37783  -0.36617  -0.36448  -0.36200  -0.35829
 Alpha  occ. eigenvalues --   -0.35042  -0.34857  -0.34436  -0.33685  -0.33396
 Alpha  occ. eigenvalues --   -0.32969  -0.32519  -0.32321  -0.31896  -0.31252
 Alpha  occ. eigenvalues --   -0.30849  -0.29494  -0.26855  -0.26610  -0.25534
 Alpha  occ. eigenvalues --   -0.24797  -0.23390  -0.22191  -0.18987
 Alpha virt. eigenvalues --   -0.03736  -0.01632   0.00690   0.01171   0.01971
 Alpha virt. eigenvalues --    0.03601   0.03798   0.04406   0.04867   0.06289
 Alpha virt. eigenvalues --    0.07652   0.08967   0.09526   0.09677   0.09766

 Mulliken charges:
               1
     1  N   -0.313224
     2  C    0.042090
     3  C    0.064165
     4  C   -0.047735
     5  C    0.079645
     6  C   -0.047428
     7  C    0.123496
     8  H    0.033200
     9  H    0.047208
    10  H    0.033351
    11  C   -0.076840
    12  N   -0.388511
    13  H    0.068437
    14  H    0.121815
    15  H    0.132365
    16  P    0.239778
    17  H    0.088862
    18  Ru  -0.280505
    19  C   -0.024340
    20  C   -0.471415
    21  C    0.008643
    22  C   -0.447601
    23  C    0.004409
    24  C   -0.017861
    25  C   -0.003081
    26  C   -0.026997
    27  C   -0.000275
    28  C   -0.024823
    29  H   -0.064574
    30  H    0.113485
    31  C   -0.079100
    32  H    0.093201
    33  H    0.090011
    34  C   -0.109113
    35  H    0.051978
    36  C    0.022433
    37  O   -0.500014
    38  H    0.162703
    39  H    0.090104
    40  H    0.066481
    41  H    0.065028
    42  H    0.060063
    43  H    0.063707
    44  H    0.058114
    45  H    0.039636
    46  H    0.059740
    47  H    0.082763
    48  H    0.049767
    49  H    0.070843
    50  H    0.063325
    51  H    0.047266
    52  H    0.044651
    53  H    0.057027
    54  H    0.061775
    55  H    0.046535
    56  H    0.060019
    57  H    0.047365
    58  H    0.107013
    59  H    0.046193
    60  H    0.047461
    61  H    0.107015
    62  H    0.061983
    63  O   -0.201711
 Sum of Mulliken charges =  -0.00000

 Dipole moment (field-independent basis, Debye):
    X=             -1.1189    Y=              8.3246    Z=              1.3433  Tot=              8.5062
 Quadrupole moment (field-independent basis, Debye-Ang):
   XX=           -145.9334   YY=           -172.9730   ZZ=           -190.3615
   XY=              0.5971   XZ=             -7.6485   YZ=              2.4049

 Normal termination of Gaussian 16 at Fri May 21 15:51:00 2021.
