 Gaussian 16, Revision A.03,
 Gaussian 16:  ES64L-G16RevA.03 25-Dec-2016

 ----------------------------------------------------------------------
 # genecp pbe1pbe EmpiricalDispersion=GD3BJ scrf=(SMD,solvent=water) ge
 om=allcheck
 ----------------------------------------------------------------------

 Structure from the checkpoint file:  "/scratch/js1212.723651/G-R2-R2-Down-GPO-T-H2O-Moved.chk"
 -------------------
 Title Card Required
 -------------------
 Charge =  0 Multiplicity = 3

                         Standard orientation:
 ---------------------------------------------------------------------
 Center     Atomic      Atomic             Coordinates (Angstroms)
 Number     Number       Type             X           Y           Z
 ---------------------------------------------------------------------
      1          1           0       -0.032708    1.604177    4.137174
      2          6           0        0.939032    1.192943    3.830385
      3          1           0        1.557565    1.106767    4.737348
      4          1           0        1.409312    1.906774    3.134564
      5          1           0        1.466672    1.598483   -2.339176
      6          8           0        1.967145    2.119663    1.025466
      7          1           0        3.263696    3.589763   -1.405321
      8          8           0        1.137210   -0.215118   -0.120883
      9          1           0        0.670132    2.313043   -0.017131
     10          6           0        0.705137   -0.132615    3.141363
     11          1           0        1.650718    1.135624   -4.047357
     12          1           0        0.231838   -0.857387    3.830738
     13          6           0        2.203388    1.429827   -3.139294
     14          1           0        3.782325    3.292630    0.253628
     15          1           0        2.692524    2.391378   -3.355407
     16          1           0        0.012086   -0.019858    2.296215
     17          6           0        4.151429    3.477386   -0.765385
     18          1           0        4.707690    4.429224   -0.785393
     19          1           0        0.744423   -1.814537    1.291011
     20         44           0        2.843445    0.418585    0.844641
     21          1           0        1.841305   -0.997927   -1.752213
     22          7           0        1.945413   -0.738079    2.597155
     23          6           0        1.608936   -2.017740    1.941995
     24          6           0        3.219169    0.334526   -2.808322
     25          1           0        1.888859   -1.179279   -3.541470
     26          1           0        4.745932    2.900457   -3.371962
     27          6           0        2.497513   -1.009075   -2.637145
     28          6           0        5.069923    2.356828   -1.266356
     29         15           0        4.039374    0.756141   -1.140193
     30          1           0        1.314152   -2.784819    2.676870
     31          6           0        5.565790    2.704219   -2.669780
     32          1           0        3.294195    0.024625    4.001803
     33          1           0        1.720244   -1.329903    5.416481
     34          1           0        6.159479    3.630554   -2.597463
     35          6           0        2.964898   -0.961229    3.653935
     36          1           0        3.658649   -0.290090   -4.806196
     37          6           0        4.239933    0.997653    1.886907
     38          6           0        4.209260    0.165118   -3.966459
     39          1           0        6.079362    1.980174    0.665167
     40          6           0        6.306869    2.250949   -0.370994
     41          1           0        4.632285    1.106368   -4.329610
     42          1           0        6.794481    3.239214   -0.344678
     43          6           0        2.745004   -2.507917    1.093364
     44          7           0        3.494273   -1.545320    0.525917
     45          6           0        2.536352   -1.799305    4.848800
     46          1           0        3.210375   -1.845411   -2.566234
     47          1           0        3.835164   -1.423268    3.164405
     48          1           0        6.220028    1.927610   -3.090936
     49          1           0        2.221043   -2.816461    4.572773
     50          6           0        5.236080   -0.668378   -0.890738
     51          1           0        3.395345   -1.899871    5.528981
     52          1           0        5.036469   -0.520113   -3.724369
     53          6           0        4.504745   -1.844211   -0.312284
     54          6           0        3.008698   -3.850680    0.843605
     55          1           0        7.043180    1.537986   -0.773578
     56          1           0        2.395880   -4.620622    1.313592
     57          1           0        5.964184   -0.309877   -0.145382
     58          1           0        5.792478   -0.947318   -1.796305
     59          6           0        4.809356   -3.171841   -0.602278
     60          6           0        4.051939   -4.183139   -0.016767
     61          1           0        5.626695   -3.404353   -1.285546
     62          1           0        4.274489   -5.229615   -0.232618
     63          8           0        5.053752    1.384249    2.622021
     64          6           0       -0.175267   -3.897641   -1.734673
     65          1           0       -1.245867    1.941431    1.621039
     66          8           0        0.053600    2.341630   -0.807009
     67          1           0       -2.097222    3.652706   -0.876189
     68          8           0       -1.424656   -0.638258    0.772422
     69          1           0       -0.741607    1.850945   -0.541583
     70          6           0       -0.720513   -2.482738   -1.603846
     71          1           0       -1.710457    2.832967    3.091418
     72          6           0       -2.008636    2.601196    2.055386
     73          1           0       -2.738500    2.721992   -2.232692
     74          1           0       -2.006373    3.547721    1.494959
     75          6           0       -2.984589    3.510262   -1.509020
     76          1           0       -3.162784    4.448208   -2.061953
     77          1           0       -1.890052   -2.727007    0.599861
     78         44           0       -2.722746   -0.167733   -0.795664
     79          1           0       -2.561505   -0.099913    2.239460
     80          7           0       -2.179845   -2.346497   -1.406023
     81          6           0       -2.597159   -3.057178   -0.180429
     82          6           0       -3.376713    1.920428    2.061357
     83          1           0       -2.870800    0.751633    3.790976
     84          1           0       -3.786614    4.675353    0.822286
     85          6           0       -3.258749    0.565848    2.773698
     86          6           0       -4.240132    3.162380   -0.703403
     87         15           0       -3.839082    1.542693    0.248750
     88          1           0       -2.555666   -4.152802   -0.311041
     89          6           0       -4.610012    4.361898    0.167169
     90          1           0       -4.002592   -2.532749   -2.387744
     91          1           0       -2.336590   -1.329075   -3.953345
     92          1           0       -4.835769    5.211749   -0.498956
     93          6           0       -2.965517   -2.864484   -2.547261
     94          1           0       -4.140009    2.675158    3.917607
     95          6           0       -3.522917    0.244244   -2.379862
     96          6           0       -4.386567    2.763607    2.846145
     97          1           0       -5.271153    2.044917   -2.305410
     98          6           0       -5.407534    2.926104   -1.666779
     99          1           0       -4.359289    3.828633    2.595350
    100          1           0       -5.483639    3.800189   -2.334980
    101          6           0       -3.960116   -2.646027    0.301865
    102          7           0       -4.222951   -1.338448    0.182887
    103          6           0       -2.481606   -2.416103   -3.911566
    104          1           0       -4.240565    0.079464    2.890042
    105          1           0       -2.974487   -3.972281   -2.509485
    106          1           0       -5.503853    4.179523    0.780067
    107          1           0       -1.540963   -2.907858   -4.199770
    108          6           0       -5.508980    0.682115    0.444937
    109          1           0       -3.238865   -2.679371   -4.664552
    110          1           0       -5.421525    2.406303    2.729126
    111          6           0       -5.344085   -0.791359    0.675974
    112          6           0       -4.866544   -3.499581    0.922811
    113          1           0       -6.367423    2.841971   -1.134176
    114          1           0       -4.650762   -4.565826    1.005400
    115          1           0       -6.005196    0.808260   -0.530158
    116          1           0       -6.161641    1.135711    1.205514
    117          6           0       -6.282106   -1.590853    1.330364
    118          6           0       -6.039727   -2.957038    1.445777
    119          1           0       -7.190981   -1.145603    1.737421
    120          1           0       -6.766579   -3.600861    1.944908
    121          1           0       -0.518479   -0.416302    0.470126
    122          8           0       -3.983734    0.484615   -3.433932
    123          1           0        0.911292   -3.838649   -1.902405
    124          1           0       -0.611882   -4.454860   -2.578661
    125          1           0       -0.328611   -4.491421   -0.820069
    126          1           0       -0.243402   -1.961313   -0.764998
    127          1           0       -0.467418   -1.896273   -2.495843
    128          1           0        0.801468    0.566978   -0.590674
 ---------------------------------------------------------------------

 SCF Done:  E(UPBE1PBE) =  -3109.95180271     A.U. after   29 cycles

 Alpha virt. eigenvalues --    2.88652   2.88770   2.88910   2.88950   2.89443
 Alpha virt. eigenvalues --    2.89669   2.90243   2.90397   2.90675   2.90906
 Alpha virt. eigenvalues --    2.91393   2.91547   2.91898   2.92104   2.92275

  Beta  occ. eigenvalues --  -77.26571 -77.24778 -19.25952 -19.22396 -19.17878
  Beta  occ. eigenvalues --  -19.14418 -19.13232 -19.11346 -14.43326 -14.43221
  Beta  occ. eigenvalues --  -14.41663 -14.41340 -10.32114 -10.29182 -10.28864
  Beta  occ. eigenvalues --  -10.28672 -10.28162 -10.27689 -10.25618 -10.25446
  Beta  occ. eigenvalues --  -10.25256 -10.25253 -10.24819 -10.24671 -10.24670
  Beta  occ. eigenvalues --  -10.24604 -10.24327 -10.24208 -10.24203 -10.24199
  Beta  occ. eigenvalues --  -10.24165 -10.23978 -10.23589 -10.23583 -10.23299
  Beta  occ. eigenvalues --  -10.22938 -10.20944 -10.20914 -10.20914 -10.20681
  Beta  occ. eigenvalues --  -10.20541 -10.20512 -10.20499 -10.20499 -10.20442
  Beta  occ. eigenvalues --  -10.20304 -10.20278 -10.20202 -10.20154 -10.20116
  Beta  occ. eigenvalues --  -10.19473 -10.19201  -6.63969  -6.62082  -4.77633
  Beta  occ. eigenvalues --   -4.77537  -4.77358  -4.75756  -4.75690  -4.75439
  Beta  occ. eigenvalues --   -3.06113  -3.00205  -1.89662  -1.88673  -1.88394
  Beta  occ. eigenvalues --   -1.84757  -1.83509  -1.80890  -1.13604  -1.09975
  Beta  occ. eigenvalues --   -1.00997  -1.00817  -0.99655  -0.96937  -0.95874
  Beta  occ. eigenvalues --   -0.93503  -0.90379  -0.85333  -0.84608  -0.84402
  Beta  occ. eigenvalues --   -0.83823  -0.83501  -0.83066  -0.82647  -0.82625
  Beta  occ. eigenvalues --   -0.82093  -0.77845  -0.77524  -0.77184  -0.76292
  Beta  occ. eigenvalues --   -0.74365  -0.73500  -0.70569  -0.70411  -0.70171
  Beta  occ. eigenvalues --   -0.70143  -0.69901  -0.69641  -0.69599  -0.69320
  Beta  occ. eigenvalues --   -0.68974  -0.68591  -0.66360  -0.65987  -0.65126
  Beta  occ. eigenvalues --   -0.65045  -0.63391  -0.63248  -0.62324  -0.61356
  Beta  occ. eigenvalues --   -0.58046  -0.57541  -0.57143  -0.56177  -0.55615
  Beta  occ. eigenvalues --   -0.55155  -0.53632  -0.53265  -0.52960  -0.52633
  Beta  occ. eigenvalues --   -0.52326  -0.51820  -0.51449  -0.51099  -0.50242
  Beta  occ. eigenvalues --   -0.49763  -0.49071  -0.48921  -0.48312  -0.47966
  Beta  occ. eigenvalues --   -0.47459  -0.47224  -0.46880  -0.46297  -0.46219
  Beta  occ. eigenvalues --   -0.45863  -0.45716  -0.45520  -0.45388  -0.45318
  Beta  occ. eigenvalues --   -0.44673  -0.44604  -0.44531  -0.44434  -0.44333
  Beta  occ. eigenvalues --   -0.44250  -0.43800  -0.43725  -0.43504  -0.43404
  Beta  occ. eigenvalues --   -0.43258  -0.42914  -0.42365  -0.42329  -0.42187
  Beta  occ. eigenvalues --   -0.41945  -0.41772  -0.41450  -0.41286  -0.41222
  Beta  occ. eigenvalues --   -0.40929  -0.40751  -0.40358  -0.40154  -0.39758
  Beta  occ. eigenvalues --   -0.39576  -0.39492  -0.39294  -0.39000  -0.38587
  Beta  occ. eigenvalues --   -0.38359  -0.38228  -0.37992  -0.37946  -0.37799
  Beta  occ. eigenvalues --   -0.37710  -0.37493  -0.37165  -0.37040  -0.36730
  Beta  occ. eigenvalues --   -0.36636  -0.36312  -0.36301  -0.36184  -0.35986
  Beta  occ. eigenvalues --   -0.35829  -0.35499  -0.35342  -0.35058  -0.34852
  Beta  occ. eigenvalues --   -0.34731  -0.34364  -0.34234  -0.33930  -0.33832
  Beta  occ. eigenvalues --   -0.33755  -0.33160  -0.33066  -0.33018  -0.32795
  Beta  occ. eigenvalues --   -0.32685  -0.32377  -0.31982  -0.31866  -0.31264
  Beta  occ. eigenvalues --   -0.30993  -0.30580  -0.30402  -0.29954  -0.29311
  Beta  occ. eigenvalues --   -0.29091  -0.28330  -0.27738  -0.27678  -0.26940
  Beta  occ. eigenvalues --   -0.26770  -0.26437  -0.26218  -0.25761  -0.25674
  Beta  occ. eigenvalues --   -0.22337  -0.20792  -0.19975  -0.19730  -0.18463
  Beta virt. eigenvalues --   -0.07532  -0.04194  -0.03692  -0.02372  -0.01795
  Beta virt. eigenvalues --   -0.01573  -0.00990   0.00881   0.01297   0.01563
  Beta virt. eigenvalues --    0.01712   0.01770   0.02741   0.03019   0.03510

 Mulliken charges and spin densities:
               1          2
     1  H    0.127799  -0.000133
     2  C   -0.374361   0.010342
     3  H    0.115993   0.000264
     4  H    0.145799  -0.002680
     5  H    0.132285  -0.000261
     6  O   -0.682956   0.635627
     7  H    0.125561   0.000105
     8  O   -0.778729  -0.003840
     9  H    0.299192  -0.003914
    10  C   -0.108746  -0.002950
    11  H    0.108757   0.000089
    12  H    0.122550   0.005065
    13  C   -0.372049   0.000646
    14  H    0.137695  -0.000438
    15  H    0.124519   0.000180
    16  H    0.123691   0.002432
    17  C   -0.344463   0.002000
    18  H    0.111621   0.000352
    19  H    0.149516   0.000049
    20  Ru   0.993380   0.360553
    21  H    0.163695  -0.000825
    22  N   -0.215894   0.026222
    23  C   -0.112106   0.000394
    24  C    0.005929   0.001164
    25  H    0.109663   0.000023
    26  H    0.122771  -0.000102
    27  C   -0.396315   0.000410
    28  C    0.001817   0.007277
    29  P    0.111382   0.012686
    30  H    0.129970  -0.000417
    31  C   -0.334830   0.001856
    32  H    0.131039   0.000246
    33  H    0.114690  -0.000040
    34  H    0.111390   0.000773
    35  C   -0.124640  -0.000544
    36  H    0.111664   0.000121
    37  C   -0.175283  -0.027289
    38  C   -0.333533   0.000053
    39  H    0.143741   0.000008
    40  C   -0.364492  -0.000029
    41  H    0.120266  -0.000029
    42  H    0.110220   0.000185
    43  C    0.140032  -0.002939
    44  N   -0.152613  -0.004242
    45  C   -0.327006   0.000461
    46  H    0.115416   0.000042
    47  H    0.149328   0.000432
    48  H    0.114624  -0.000105
    49  H    0.113115  -0.000027
    50  C   -0.227343   0.000578
    51  H    0.119523   0.000095
    52  H    0.118543  -0.000033
    53  C    0.042761  -0.001402
    54  C   -0.166675  -0.000497
    55  H    0.115457  -0.000020
    56  H    0.166583   0.000077
    57  H    0.169745   0.000094
    58  H    0.150467  -0.000009
    59  C   -0.128353  -0.000899
    60  C   -0.124507   0.000635
    61  H    0.167358  -0.000034
    62  H    0.165415  -0.000004
    63  O   -0.271074  -0.010773
    64  C   -0.337858   0.001335
    65  H    0.095573  -0.002129
    66  O   -0.586857   0.007287
    67  H    0.111698  -0.000809
    68  O   -0.840773   0.000122
    69  H    0.318721   0.004948
    70  C   -0.121397   0.000573
    71  H    0.113585   0.000296
    72  C   -0.357040   0.000596
    73  H    0.148360  -0.006332
    74  H    0.128479   0.000169
    75  C   -0.365437   0.001036
    76  H    0.110257   0.001683
    77  H    0.178283  -0.000079
    78  Ru   0.676807   0.987003
    79  H    0.158100   0.000142
    80  N   -0.218213  -0.005797
    81  C   -0.125613   0.003506
    82  C    0.035805  -0.004171
    83  H    0.104266  -0.000040
    84  H    0.118252   0.000040
    85  C   -0.415702   0.000174
    86  C    0.020752  -0.001050
    87  P    0.033645  -0.026269
    88  H    0.121787  -0.000742
    89  C   -0.338139  -0.000481
    90  H    0.141460  -0.000169
    91  H    0.124008  -0.002227
    92  H    0.106649  -0.000034
    93  C   -0.123201  -0.000545
    94  H    0.106222  -0.000382
    95  C   -0.246066  -0.029198
    96  C   -0.341337  -0.000315
    97  H    0.136909   0.000758
    98  C   -0.360359   0.000059
    99  H    0.116804   0.000029
   100  H    0.106059  -0.000055
   101  C    0.108313  -0.003586
   102  N   -0.176859   0.062661
   103  C   -0.349263   0.001677
   104  H    0.118811  -0.000026
   105  H    0.116091  -0.000314
   106  H    0.111586   0.000078
   107  H    0.115964   0.000092
   108  C   -0.232744   0.000336
   109  H    0.122737   0.000032
   110  H    0.115597   0.000001
   111  C    0.046580  -0.002276
   112  C   -0.174417   0.006617
   113  H    0.110812  -0.000015
   114  H    0.159214   0.001736
   115  H    0.160940  -0.000211
   116  H    0.145367  -0.001015
   117  C   -0.146749   0.005638
   118  C   -0.137367  -0.005492
   119  H    0.161094   0.001496
   120  H    0.160458   0.000133
   121  H    0.323155  -0.003657
   122  O   -0.345566   0.004204
   123  H    0.123440  -0.000035
   124  H    0.113671  -0.000002
   125  H    0.111582   0.000297
   126  H    0.131667  -0.000056
   127  H    0.131794  -0.000540
   128  H    0.300610  -0.003772
 Sum of Mulliken charges =  -0.00000   2.00000

 Dipole moment (field-independent basis, Debye):
    X=              4.0479    Y=            -15.6899    Z=              2.1687  Tot=             16.3481
 Quadrupole moment (field-independent basis, Debye-Ang):
   XX=           -284.7815   YY=           -341.7400   ZZ=           -376.0326
   XY=            -19.4262   XZ=            -49.0970   YZ=             -7.2118

 Normal termination of Gaussian 16 at Sat Mar 14 07:43:52 2020.
