 Gaussian 16, Revision A.03,
 Gaussian 16:  ES64L-G16RevA.03 25-Dec-2016

 ----------------------------------------------------------------------
 # genecp pbe1pbe EmpiricalDispersion=GD3BJ scrf=(SMD,solvent=water) td
 =nstates=25 geom=allcheck
 ----------------------------------------------------------------------

 Structure from the checkpoint file:  "/scratch/js1212.723650/G-R2-R2-Down-GPO-T-H2O-Moved.chk"
 -------------------
 Title Card Required
 -------------------
 Charge =  0 Multiplicity = 3

                         Standard orientation:
 ---------------------------------------------------------------------
 Center     Atomic      Atomic             Coordinates (Angstroms)
 Number     Number       Type             X           Y           Z
 ---------------------------------------------------------------------
      1          1           0       -0.032708    1.604177    4.137174
      2          6           0        0.939032    1.192943    3.830385
      3          1           0        1.557565    1.106767    4.737348
      4          1           0        1.409312    1.906774    3.134564
      5          1           0        1.466672    1.598483   -2.339176
      6          8           0        1.967145    2.119663    1.025466
      7          1           0        3.263696    3.589763   -1.405321
      8          8           0        1.137210   -0.215118   -0.120883
      9          1           0        0.670132    2.313043   -0.017131
     10          6           0        0.705137   -0.132615    3.141363
     11          1           0        1.650718    1.135624   -4.047357
     12          1           0        0.231838   -0.857387    3.830738
     13          6           0        2.203388    1.429827   -3.139294
     14          1           0        3.782325    3.292630    0.253628
     15          1           0        2.692524    2.391378   -3.355407
     16          1           0        0.012086   -0.019858    2.296215
     17          6           0        4.151429    3.477386   -0.765385
     18          1           0        4.707690    4.429224   -0.785393
     19          1           0        0.744423   -1.814537    1.291011
     20         44           0        2.843445    0.418585    0.844641
     21          1           0        1.841305   -0.997927   -1.752213
     22          7           0        1.945413   -0.738079    2.597155
     23          6           0        1.608936   -2.017740    1.941995
     24          6           0        3.219169    0.334526   -2.808322
     25          1           0        1.888859   -1.179279   -3.541470
     26          1           0        4.745932    2.900457   -3.371962
     27          6           0        2.497513   -1.009075   -2.637145
     28          6           0        5.069923    2.356828   -1.266356
     29         15           0        4.039374    0.756141   -1.140193
     30          1           0        1.314152   -2.784819    2.676870
     31          6           0        5.565790    2.704219   -2.669780
     32          1           0        3.294195    0.024625    4.001803
     33          1           0        1.720244   -1.329903    5.416481
     34          1           0        6.159479    3.630554   -2.597463
     35          6           0        2.964898   -0.961229    3.653935
     36          1           0        3.658649   -0.290090   -4.806196
     37          6           0        4.239933    0.997653    1.886907
     38          6           0        4.209260    0.165118   -3.966459
     39          1           0        6.079362    1.980174    0.665167
     40          6           0        6.306869    2.250949   -0.370994
     41          1           0        4.632285    1.106368   -4.329610
     42          1           0        6.794481    3.239214   -0.344678
     43          6           0        2.745004   -2.507917    1.093364
     44          7           0        3.494273   -1.545320    0.525917
     45          6           0        2.536352   -1.799305    4.848800
     46          1           0        3.210375   -1.845411   -2.566234
     47          1           0        3.835164   -1.423268    3.164405
     48          1           0        6.220028    1.927610   -3.090936
     49          1           0        2.221043   -2.816461    4.572773
     50          6           0        5.236080   -0.668378   -0.890738
     51          1           0        3.395345   -1.899871    5.528981
     52          1           0        5.036469   -0.520113   -3.724369
     53          6           0        4.504745   -1.844211   -0.312284
     54          6           0        3.008698   -3.850680    0.843605
     55          1           0        7.043180    1.537986   -0.773578
     56          1           0        2.395880   -4.620622    1.313592
     57          1           0        5.964184   -0.309877   -0.145382
     58          1           0        5.792478   -0.947318   -1.796305
     59          6           0        4.809356   -3.171841   -0.602278
     60          6           0        4.051939   -4.183139   -0.016767
     61          1           0        5.626695   -3.404353   -1.285546
     62          1           0        4.274489   -5.229615   -0.232618
     63          8           0        5.053752    1.384249    2.622021
     64          6           0       -0.175267   -3.897641   -1.734673
     65          1           0       -1.245867    1.941431    1.621039
     66          8           0        0.053600    2.341630   -0.807009
     67          1           0       -2.097222    3.652706   -0.876189
     68          8           0       -1.424656   -0.638258    0.772422
     69          1           0       -0.741607    1.850945   -0.541583
     70          6           0       -0.720513   -2.482738   -1.603846
     71          1           0       -1.710457    2.832967    3.091418
     72          6           0       -2.008636    2.601196    2.055386
     73          1           0       -2.738500    2.721992   -2.232692
     74          1           0       -2.006373    3.547721    1.494959
     75          6           0       -2.984589    3.510262   -1.509020
     76          1           0       -3.162784    4.448208   -2.061953
     77          1           0       -1.890052   -2.727007    0.599861
     78         44           0       -2.722746   -0.167733   -0.795664
     79          1           0       -2.561505   -0.099913    2.239460
     80          7           0       -2.179845   -2.346497   -1.406023
     81          6           0       -2.597159   -3.057178   -0.180429
     82          6           0       -3.376713    1.920428    2.061357
     83          1           0       -2.870800    0.751633    3.790976
     84          1           0       -3.786614    4.675353    0.822286
     85          6           0       -3.258749    0.565848    2.773698
     86          6           0       -4.240132    3.162380   -0.703403
     87         15           0       -3.839082    1.542693    0.248750
     88          1           0       -2.555666   -4.152802   -0.311041
     89          6           0       -4.610012    4.361898    0.167169
     90          1           0       -4.002592   -2.532749   -2.387744
     91          1           0       -2.336590   -1.329075   -3.953345
     92          1           0       -4.835769    5.211749   -0.498956
     93          6           0       -2.965517   -2.864484   -2.547261
     94          1           0       -4.140009    2.675158    3.917607
     95          6           0       -3.522917    0.244244   -2.379862
     96          6           0       -4.386567    2.763607    2.846145
     97          1           0       -5.271153    2.044917   -2.305410
     98          6           0       -5.407534    2.926104   -1.666779
     99          1           0       -4.359289    3.828633    2.595350
    100          1           0       -5.483639    3.800189   -2.334980
    101          6           0       -3.960116   -2.646027    0.301865
    102          7           0       -4.222951   -1.338448    0.182887
    103          6           0       -2.481606   -2.416103   -3.911566
    104          1           0       -4.240565    0.079464    2.890042
    105          1           0       -2.974487   -3.972281   -2.509485
    106          1           0       -5.503853    4.179523    0.780067
    107          1           0       -1.540963   -2.907858   -4.199770
    108          6           0       -5.508980    0.682115    0.444937
    109          1           0       -3.238865   -2.679371   -4.664552
    110          1           0       -5.421525    2.406303    2.729126
    111          6           0       -5.344085   -0.791359    0.675974
    112          6           0       -4.866544   -3.499581    0.922811
    113          1           0       -6.367423    2.841971   -1.134176
    114          1           0       -4.650762   -4.565826    1.005400
    115          1           0       -6.005196    0.808260   -0.530158
    116          1           0       -6.161641    1.135711    1.205514
    117          6           0       -6.282106   -1.590853    1.330364
    118          6           0       -6.039727   -2.957038    1.445777
    119          1           0       -7.190981   -1.145603    1.737421
    120          1           0       -6.766579   -3.600861    1.944908
    121          1           0       -0.518479   -0.416302    0.470126
    122          8           0       -3.983734    0.484615   -3.433932
    123          1           0        0.911292   -3.838649   -1.902405
    124          1           0       -0.611882   -4.454860   -2.578661
    125          1           0       -0.328611   -4.491421   -0.820069
    126          1           0       -0.243402   -1.961313   -0.764998
    127          1           0       -0.467418   -1.896273   -2.495843
    128          1           0        0.801468    0.566978   -0.590674
 ---------------------------------------------------------------------

 SCF Done:  E(UPBE1PBE) =  -3109.31993725     A.U. after   29 cycles

 Excitation energies and oscillator strengths:

 Excited State   1:  3.010-A      0.7011 eV 1768.49 nm  f=0.0002  <S**2>=2.015
    217B -> 226B      -0.10128
    221B -> 226B      -0.13448
    223B -> 226B       0.80905
    223B -> 227B       0.12621
    224B -> 226B       0.50610
 This state for optimization and/or second-order correction.
 Total Energy, E(TD-HF/TD-DFT) =  -3109.29417331
 Copying the excited state density for this state as the 1-particle RhoCI density.

 Excited State   2:  3.035-A      1.8811 eV  659.10 nm  f=0.0002  <S**2>=2.053
    227A -> 229A       0.81285
    227A -> 233A      -0.24450
    222B -> 230B       0.13848
    225B -> 228B       0.21068
    225B -> 230B      -0.34486
    225B -> 231B       0.12934

 Excited State   3:  3.026-A      1.9060 eV  650.48 nm  f=0.0043  <S**2>=2.039
    227A -> 229A       0.43576
    227A -> 233A      -0.20503
    222B -> 228B       0.11212
    222B -> 230B      -0.19887
    225B -> 228B      -0.39610
    225B -> 230B       0.58237
    225B -> 231B      -0.20928
    225B -> 232B      -0.12162
    225B -> 234B      -0.17369
    225B -> 240B      -0.10885

 Excited State   4:  3.032-A      2.2792 eV  543.99 nm  f=0.0140  <S**2>=2.049
    227A -> 228A       0.17254
    227A -> 229A       0.35955
    227A -> 233A       0.83231
    227A -> 234A      -0.13777
    227A -> 235A      -0.13589
    227A -> 236A      -0.13043

 Excited State   5:  3.027-A      2.3007 eV  538.90 nm  f=0.0064  <S**2>=2.040
    221B -> 226B       0.87477
    224B -> 226B       0.25648
    225B -> 226B      -0.30887

 Excited State   6:  3.036-A      2.3310 eV  531.89 nm  f=0.0004  <S**2>=2.054
    221B -> 226B       0.27728
    224B -> 226B       0.13885
    225B -> 226B       0.94083

 Excited State   7:  3.038-A      2.3618 eV  524.96 nm  f=0.0004  <S**2>=2.058
    227A -> 228A       0.97764
    227A -> 233A      -0.17130

 Excited State   8:  3.041-A      2.4762 eV  500.71 nm  f=0.0077  <S**2>=2.062
    227A -> 233A      -0.15266
    223B -> 228B       0.27589
    223B -> 230B      -0.34428
    223B -> 231B       0.12780
    224B -> 228B      -0.46959
    224B -> 230B       0.57876
    224B -> 231B      -0.21542
    224B -> 232B      -0.12111

 Excited State   9:  3.044-A      2.6056 eV  475.84 nm  f=0.0005  <S**2>=2.066
    227A -> 230A       0.11955
    227A -> 231A       0.37560
    227A -> 232A       0.90551

 Excited State  10:  3.055-A      2.7583 eV  449.50 nm  f=0.0008  <S**2>=2.083
    221B -> 226B      -0.23323
    223B -> 226B      -0.53990
    224B -> 226B       0.78152

 Excited State  11:  4.074-A      2.7746 eV  446.86 nm  f=0.0002  <S**2>=3.899
    222A -> 233A      -0.16628
    226A -> 229A       0.27889
    226A -> 233A      -0.43791
    226A -> 239A       0.10149
    222B -> 234B       0.10724
    225B -> 228B       0.46865
    225B -> 234B      -0.38625
    225B -> 235B       0.10929
    225B -> 236B       0.11833
    225B -> 237B       0.32109
    225B -> 239B      -0.11016
    225B -> 243B       0.10331

 Excited State  12:  3.463-A      2.8635 eV  432.98 nm  f=0.0031  <S**2>=2.749
    224A -> 228A      -0.14013
    224A -> 230A      -0.10635
    224A -> 231A       0.23908
    227A -> 230A       0.62473
    227A -> 231A      -0.23663
    217B -> 226B      -0.16922
    222B -> 226B      -0.14672
    222B -> 228B       0.13433
    222B -> 230B      -0.14877
    223B -> 227B       0.19146
    223B -> 232B      -0.32501
    224B -> 227B       0.13028
    224B -> 232B      -0.20406

 Excited State  13:  3.071-A      2.8717 eV  431.74 nm  f=0.0004  <S**2>=2.107
    226A -> 233A      -0.10216
    227A -> 230A       0.31526
    227A -> 241A      -0.10753
    219B -> 226B      -0.10049
    222B -> 226B       0.26792
    222B -> 228B      -0.49146
    222B -> 230B       0.55313
    222B -> 231B      -0.20085
    222B -> 232B      -0.11319
    225B -> 228B      -0.16629
    225B -> 230B       0.18997

 Excited State  14:  3.460-A      2.8822 eV  430.18 nm  f=0.0059  <S**2>=2.742
    223A -> 231A       0.13831
    224A -> 228A       0.12839
    224A -> 231A      -0.16510
    225A -> 231A      -0.11322
    227A -> 230A       0.56900
    227A -> 231A      -0.10481
    217B -> 226B       0.13689
    219B -> 226B      -0.28146
    220B -> 226B      -0.17015
    222B -> 228B       0.14686
    222B -> 230B      -0.16194
    223B -> 227B      -0.22285
    223B -> 232B       0.35163
    224B -> 227B      -0.14688
    224B -> 232B       0.22780

 Excited State  15:  3.127-A      2.9140 eV  425.48 nm  f=0.0336  <S**2>=2.195
    221A -> 231A      -0.10786
    223A -> 228A       0.13489
    223A -> 230A       0.19978
    223A -> 231A      -0.46428
    223A -> 232A       0.17934
    224A -> 231A      -0.17197
    227A -> 230A       0.34129
    211B -> 226B       0.17103
    217B -> 226B       0.16872
    218B -> 226B       0.10530
    219B -> 226B       0.56427
    220B -> 226B       0.13715

 Excited State  16:  3.133-A      2.9718 eV  417.20 nm  f=0.0011  <S**2>=2.203
    224A -> 231A       0.11899
    211B -> 226B       0.33099
    212B -> 226B      -0.14263
    222B -> 226B       0.81569
    222B -> 228B       0.14985
    222B -> 230B      -0.15648
    223B -> 232B      -0.11827

 Excited State  17:  3.073-A      2.9928 eV  414.27 nm  f=0.0012  <S**2>=2.111
    224A -> 231A      -0.11125
    227A -> 231A       0.13911
    185B -> 226B       0.11047
    211B -> 226B      -0.66260
    211B -> 227B      -0.10028
    212B -> 226B       0.29929
    214B -> 226B      -0.18825
    217B -> 226B      -0.12535
    219B -> 226B       0.12952
    222B -> 226B       0.46197

 Excited State  18:  3.095-A      3.0348 eV  408.54 nm  f=0.0045  <S**2>=2.144
    227A -> 230A       0.17669
    227A -> 231A       0.81491
    227A -> 232A      -0.37148
    219B -> 226B      -0.27230

 Excited State  19:  3.521-A      3.0772 eV  402.92 nm  f=0.0069  <S**2>=2.850
    222A -> 233A       0.13781
    223A -> 231A       0.10320
    225A -> 229A      -0.14218
    226A -> 229A      -0.21111
    226A -> 233A       0.36210
    222B -> 228B      -0.10229
    225B -> 228B       0.63540
    225B -> 230B       0.42859
    225B -> 231B      -0.11675

 Excited State  20:  3.259-A      3.0896 eV  401.30 nm  f=0.0220  <S**2>=2.405
    223A -> 228A      -0.24916
    223A -> 230A      -0.21621
    223A -> 231A       0.50588
    223A -> 232A      -0.19652
    224A -> 231A      -0.10393
    225A -> 231A      -0.17462
    227A -> 231A       0.26100
    227A -> 232A      -0.10741
    211B -> 226B       0.10626
    219B -> 226B       0.46447
    220B -> 226B       0.16215
    221B -> 232B       0.13726
    225B -> 228B      -0.12189

 Excited State  21:  3.581-A      3.1508 eV  393.50 nm  f=0.0088  <S**2>=2.957
    224A -> 229A      -0.11916
    225A -> 229A       0.28135
    225A -> 233A      -0.15313
    226A -> 229A      -0.16573
    227A -> 236A      -0.26702
    227A -> 238A      -0.15523
    227A -> 239A       0.42879
    227A -> 240A       0.19873
    227A -> 244A      -0.15673
    227A -> 245A       0.24705
    227A -> 246A       0.11856
    227A -> 248A       0.12393
    223B -> 228B       0.17846
    223B -> 230B       0.11348
    224B -> 228B      -0.30191
    224B -> 230B      -0.18988
    224B -> 234B       0.14390
    224B -> 237B      -0.13596

 Excited State  22:  3.758-A      3.1673 eV  391.45 nm  f=0.0004  <S**2>=3.280
    216A -> 230A       0.10527
    224A -> 228A      -0.33116
    225A -> 228A      -0.13690
    211B -> 226B      -0.20368
    215B -> 226B      -0.17891
    215B -> 229B       0.12962
    217B -> 226B       0.29657
    217B -> 227B       0.10124
    218B -> 226B       0.18341
    220B -> 226B      -0.16129
    223B -> 227B       0.49976
    223B -> 232B       0.20773
    224B -> 227B       0.32714
    224B -> 232B       0.12775

 Excited State  23:  3.511-A      3.1763 eV  390.34 nm  f=0.0083  <S**2>=2.832
    219A -> 232A       0.10507
    222A -> 229A       0.10224
    225A -> 229A      -0.18585
    226A -> 229A       0.44785
    227A -> 236A      -0.24558
    227A -> 238A      -0.13749
    227A -> 239A       0.40557
    227A -> 240A       0.17303
    227A -> 244A      -0.12953
    227A -> 245A       0.21933
    227A -> 246A       0.10839
    222B -> 230B      -0.11310
    223B -> 228B      -0.17614
    223B -> 230B      -0.12333
    224B -> 228B       0.29200
    224B -> 230B       0.19739
    225B -> 234B       0.13741
    225B -> 237B      -0.10447

 Excited State  24:  3.474-A      3.2330 eV  383.50 nm  f=0.0153  <S**2>=2.767
    224A -> 230A      -0.15601
    224A -> 231A       0.34091
    224A -> 232A      -0.13272
    225A -> 231A       0.14281
    205B -> 226B      -0.11646
    209B -> 226B      -0.10628
    211B -> 226B      -0.18626
    215B -> 226B      -0.23917
    217B -> 226B       0.46637
    218B -> 226B       0.28762
    219B -> 226B       0.13888
    220B -> 226B      -0.18455
    223B -> 226B       0.12544
    223B -> 227B      -0.22514
    223B -> 232B      -0.20974
    224B -> 226B       0.11429
    224B -> 227B      -0.15695
    224B -> 232B      -0.13374

 Excited State  25:  3.851-A      3.3049 eV  375.15 nm  f=0.0091  <S**2>=3.458
    222A -> 233A       0.10424
    225A -> 229A       0.18420
    226A -> 229A       0.69010
    227A -> 236A       0.10516
    227A -> 239A      -0.15743
    227A -> 245A      -0.10499
    223B -> 228B       0.12837
    223B -> 230B       0.10075
    224B -> 228B      -0.21404
    224B -> 230B      -0.16076
    225B -> 227B       0.12051
    225B -> 228B       0.18634
    225B -> 230B       0.14548
    225B -> 231B      -0.14201
    225B -> 234B       0.22798
    225B -> 237B      -0.20208

 The electronic state is 3-A.
 Alpha  occ. eigenvalues --  -77.26471 -77.24776 -19.27294 -19.23721 -19.19040
 Alpha  occ. eigenvalues --  -19.17681 -19.14645 -19.12814 -14.44299 -14.44265
 Alpha  occ. eigenvalues --  -14.42662 -14.42543 -10.32842 -10.29919 -10.29540
 Alpha  occ. eigenvalues --  -10.29428 -10.28868 -10.28408 -10.26220 -10.26118
 Alpha  occ. eigenvalues --  -10.26071 -10.25725 -10.25611 -10.25464 -10.25434
 Alpha  occ. eigenvalues --  -10.25116 -10.25103 -10.25023 -10.25021 -10.25016
 Alpha  occ. eigenvalues --  -10.24751 -10.24646 -10.24402 -10.24396 -10.24069
 Alpha  occ. eigenvalues --  -10.23763 -10.21936 -10.21932 -10.21908 -10.21660
 Alpha  occ. eigenvalues --  -10.21560 -10.21503 -10.21495 -10.21474 -10.21458
 Alpha  occ. eigenvalues --  -10.21265 -10.21246 -10.21174 -10.21150 -10.21130
 Alpha  occ. eigenvalues --  -10.20374 -10.20116  -6.64410  -6.62592  -4.78046
 Alpha  occ. eigenvalues --   -4.77948  -4.77767  -4.76245  -4.76175  -4.75899
 Alpha  occ. eigenvalues --   -3.07467  -3.02503  -1.90705  -1.90665  -1.90108
 Alpha  occ. eigenvalues --   -1.86702  -1.85427  -1.85009  -1.13884  -1.10242
 Alpha  occ. eigenvalues --   -1.01206  -1.00624  -1.00094  -0.97153  -0.96001
 Alpha  occ. eigenvalues --   -0.93354  -0.90278  -0.89490  -0.85360  -0.84461
 Alpha  occ. eigenvalues --   -0.84046  -0.83622  -0.83287  -0.82762  -0.82641
 Alpha  occ. eigenvalues --   -0.82098  -0.77852  -0.77519  -0.77241  -0.76342
 Alpha  occ. eigenvalues --   -0.74463  -0.73592  -0.70601  -0.70399  -0.70149
 Alpha  occ. eigenvalues --   -0.70127  -0.69925  -0.69597  -0.69589  -0.69289
 Alpha  occ. eigenvalues --   -0.68920  -0.68535  -0.66418  -0.66055  -0.65252
 Alpha  occ. eigenvalues --   -0.65015  -0.63456  -0.63359  -0.62397  -0.61447
 Alpha  occ. eigenvalues --   -0.57992  -0.57484  -0.57097  -0.56126  -0.55557
 Alpha  occ. eigenvalues --   -0.55170  -0.53596  -0.53238  -0.52967  -0.52604
 Alpha  occ. eigenvalues --   -0.52259  -0.51703  -0.51361  -0.50990  -0.50176
 Alpha  occ. eigenvalues --   -0.49676  -0.49005  -0.48827  -0.48213  -0.47926
 Alpha  occ. eigenvalues --   -0.47376  -0.47137  -0.46723  -0.46179  -0.46153
 Alpha  occ. eigenvalues --   -0.45714  -0.45581  -0.45433  -0.45230  -0.45170
 Alpha  occ. eigenvalues --   -0.44603  -0.44568  -0.44450  -0.44335  -0.44211
 Alpha  occ. eigenvalues --   -0.44147  -0.43697  -0.43608  -0.43488  -0.43335
 Alpha  occ. eigenvalues --   -0.43173  -0.42789  -0.42370  -0.42229  -0.42175
 Alpha  occ. eigenvalues --   -0.41836  -0.41573  -0.41525  -0.41241  -0.41062
 Alpha  occ. eigenvalues --   -0.40718  -0.40621  -0.40193  -0.40109  -0.39599
 Alpha  occ. eigenvalues --   -0.39410  -0.39240  -0.39119  -0.38884  -0.38471
 Alpha  occ. eigenvalues --   -0.38201  -0.38110  -0.37846  -0.37811  -0.37682
 Alpha  occ. eigenvalues --   -0.37623  -0.37366  -0.37038  -0.37015  -0.36747
 Alpha  occ. eigenvalues --   -0.36519  -0.36248  -0.36155  -0.36105  -0.36024
 Alpha  occ. eigenvalues --   -0.35679  -0.35415  -0.35348  -0.34980  -0.34894
 Alpha  occ. eigenvalues --   -0.34703  -0.34365  -0.34213  -0.33962  -0.33752
 Alpha  occ. eigenvalues --   -0.33681  -0.33507  -0.33235  -0.33105  -0.32928
 Alpha  occ. eigenvalues --   -0.32823  -0.32372  -0.32271  -0.31999  -0.31892
 Alpha  occ. eigenvalues --   -0.31313  -0.31148  -0.30710  -0.30467  -0.29835
 Alpha  occ. eigenvalues --   -0.29625  -0.29288  -0.28404  -0.27983  -0.27610
 Alpha  occ. eigenvalues --   -0.26941  -0.26705  -0.26436  -0.26199  -0.25672
 Alpha  occ. eigenvalues --   -0.22870  -0.21440  -0.21203  -0.20890  -0.20532
 Alpha  occ. eigenvalues --   -0.19172  -0.14638
 Alpha virt. eigenvalues --   -0.04071  -0.03183  -0.02125  -0.01309  -0.01282
 Alpha virt. eigenvalues --    0.00676   0.01102   0.01776   0.01882   0.01974
 Alpha virt. eigenvalues --    0.03153   0.03414   0.03810   0.04333   0.04421

  Beta  occ. eigenvalues --  -77.26469 -77.24786 -19.27326 -19.23700 -19.19004
  Beta  occ. eigenvalues --  -19.15950 -19.14659 -19.12787 -14.44291 -14.44229
  Beta  occ. eigenvalues --  -14.42555 -14.42415 -10.32882 -10.29914 -10.29589
  Beta  occ. eigenvalues --  -10.29422 -10.28881 -10.28416 -10.26223 -10.26103
  Beta  occ. eigenvalues --  -10.26070 -10.25725 -10.25614 -10.25471 -10.25425
  Beta  occ. eigenvalues --  -10.25115 -10.25104 -10.25023 -10.25021 -10.25018
  Beta  occ. eigenvalues --  -10.24750 -10.24653 -10.24389 -10.24387 -10.24066
  Beta  occ. eigenvalues --  -10.23761 -10.21935 -10.21932 -10.21903 -10.21660
  Beta  occ. eigenvalues --  -10.21558 -10.21502 -10.21496 -10.21472 -10.21453
  Beta  occ. eigenvalues --  -10.21266 -10.21245 -10.21172 -10.21136 -10.21114
  Beta  occ. eigenvalues --  -10.20375 -10.20117  -6.64408  -6.62605  -4.78044
  Beta  occ. eigenvalues --   -4.77948  -4.77759  -4.76249  -4.76184  -4.75928
  Beta  occ. eigenvalues --   -3.05945  -2.99984  -1.89510  -1.88554  -1.88253
  Beta  occ. eigenvalues --   -1.84574  -1.83314  -1.80669  -1.13946  -1.10189
  Beta  occ. eigenvalues --   -1.01198  -1.00507  -0.99854  -0.97065  -0.95985
  Beta  occ. eigenvalues --   -0.93352  -0.90185  -0.85403  -0.84635  -0.84460
  Beta  occ. eigenvalues --   -0.83965  -0.83605  -0.83205  -0.82742  -0.82628
  Beta  occ. eigenvalues --   -0.82099  -0.77832  -0.77513  -0.77226  -0.76316
  Beta  occ. eigenvalues --   -0.74449  -0.73577  -0.70579  -0.70384  -0.70143
  Beta  occ. eigenvalues --   -0.70120  -0.69906  -0.69586  -0.69583  -0.69279
  Beta  occ. eigenvalues --   -0.68917  -0.68536  -0.66388  -0.66038  -0.65211
  Beta  occ. eigenvalues --   -0.65007  -0.63432  -0.63287  -0.62373  -0.61404
  Beta  occ. eigenvalues --   -0.58006  -0.57503  -0.57070  -0.56110  -0.55552
  Beta  occ. eigenvalues --   -0.55089  -0.53573  -0.53207  -0.52876  -0.52549
  Beta  occ. eigenvalues --   -0.52213  -0.51568  -0.51303  -0.50885  -0.50132
  Beta  occ. eigenvalues --   -0.49641  -0.48971  -0.48806  -0.48189  -0.47906
  Beta  occ. eigenvalues --   -0.47325  -0.47094  -0.46733  -0.46173  -0.46112
  Beta  occ. eigenvalues --   -0.45707  -0.45560  -0.45412  -0.45220  -0.45138
  Beta  occ. eigenvalues --   -0.44556  -0.44443  -0.44381  -0.44266  -0.44185
  Beta  occ. eigenvalues --   -0.44094  -0.43659  -0.43582  -0.43352  -0.43262
  Beta  occ. eigenvalues --   -0.43141  -0.42749  -0.42177  -0.42098  -0.42046
  Beta  occ. eigenvalues --   -0.41796  -0.41577  -0.41341  -0.41133  -0.41026
  Beta  occ. eigenvalues --   -0.40735  -0.40582  -0.40106  -0.39975  -0.39574
  Beta  occ. eigenvalues --   -0.39371  -0.39208  -0.39043  -0.38853  -0.38408
  Beta  occ. eigenvalues --   -0.38184  -0.38057  -0.37809  -0.37771  -0.37636
  Beta  occ. eigenvalues --   -0.37526  -0.37301  -0.37004  -0.36924  -0.36555
  Beta  occ. eigenvalues --   -0.36452  -0.36168  -0.36131  -0.36008  -0.35866
  Beta  occ. eigenvalues --   -0.35631  -0.35349  -0.35210  -0.34911  -0.34684
  Beta  occ. eigenvalues --   -0.34544  -0.34199  -0.34076  -0.33760  -0.33662
  Beta  occ. eigenvalues --   -0.33585  -0.33014  -0.32906  -0.32866  -0.32655
  Beta  occ. eigenvalues --   -0.32568  -0.32213  -0.31860  -0.31760  -0.30973
  Beta  occ. eigenvalues --   -0.30842  -0.30403  -0.30273  -0.29518  -0.29194
  Beta  occ. eigenvalues --   -0.28879  -0.28061  -0.27631  -0.27366  -0.26754
  Beta  occ. eigenvalues --   -0.26569  -0.26218  -0.26020  -0.25611  -0.25464
  Beta  occ. eigenvalues --   -0.21996  -0.20514  -0.19729  -0.19481  -0.18206
  Beta virt. eigenvalues --   -0.07270  -0.03916  -0.03402  -0.02080  -0.01564
  Beta virt. eigenvalues --   -0.01263  -0.00750   0.01180   0.01598   0.01876
  Beta virt. eigenvalues --    0.02042   0.02116   0.03310   0.03825   0.04140

 Mulliken charges and spin densities:
               1          2
     1  H    0.060000  -0.000238
     2  C   -0.114482   0.008594
     3  H    0.063704   0.000421
     4  H    0.114027  -0.000277
     5  H    0.077003   0.000572
     6  O   -0.539307   0.652396
     7  H    0.073488   0.000091
     8  O   -0.517649  -0.004310
     9  H    0.226675  -0.005748
    10  C   -0.018357  -0.000322
    11  H    0.053400  -0.000027
    12  H    0.057768   0.004235
    13  C   -0.035034   0.000320
    14  H    0.114430   0.000762
    15  H    0.060581   0.000062
    16  H    0.075235   0.001175
    17  C   -0.028666   0.001353
    18  H    0.049235   0.000316
    19  H    0.112574   0.000086
    20  Ru   0.246251   0.338161
    21  H    0.108169  -0.000186
    22  N   -0.392495   0.025855
    23  C    0.116183  -0.001108
    24  C   -0.452712   0.000365
    25  H    0.051401  -0.000035
    26  H    0.066233  -0.000069
    27  C   -0.069438   0.000059
    28  C   -0.461703   0.005306
    29  P    0.225570   0.013676
    30  H    0.079274  -0.000285
    31  C    0.000645   0.001736
    32  H    0.096466   0.000340
    33  H    0.068403  -0.000052
    34  H    0.052627   0.000709
    35  C   -0.049860  -0.000828
    36  H    0.048537   0.000047
    37  C    0.017813  -0.023921
    38  C   -0.000860   0.000132
    39  H    0.069713   0.000050
    40  C   -0.030069  -0.000089
    41  H    0.046982  -0.000020
    42  H    0.055796   0.000146
    43  C    0.029933   0.002048
    44  N   -0.320503  -0.009459
    45  C   -0.079595   0.000397
    46  H    0.060392  -0.000001
    47  H    0.117423   0.000923
    48  H    0.060667  -0.000092
    49  H    0.068275  -0.000008
    50  C   -0.069912   0.001343
    51  H    0.066427   0.000114
    52  H    0.056424  -0.000050
    53  C    0.048231   0.002099
    54  C   -0.046935  -0.000663
    55  H    0.068489  -0.000024
    56  H    0.037115   0.000140
    57  H    0.124528   0.000223
    58  H    0.095949  -0.000177
    59  C   -0.045225  -0.000828
    60  C    0.083313   0.000541
    61  H    0.038736   0.000018
    62  H    0.050244  -0.000013
    63  O   -0.170293  -0.009850
    64  C   -0.094496   0.001555
    65  H    0.089126  -0.001644
    66  O   -0.367671   0.006899
    67  H    0.055237  -0.000819
    68  O   -0.565671   0.003537
    69  H    0.278117   0.004065
    70  C   -0.049157   0.000665
    71  H    0.052258   0.000392
    72  C   -0.038512   0.000778
    73  H    0.101531  -0.006023
    74  H    0.059457   0.000064
    75  C   -0.023721   0.002233
    76  H    0.044641   0.001800
    77  H    0.130042  -0.000182
    78  Ru  -0.168356   0.955348
    79  H    0.126849  -0.000089
    80  N   -0.372591  -0.004652
    81  C    0.117578   0.003550
    82  C   -0.449179  -0.003152
    83  H    0.040733  -0.000020
    84  H    0.061693   0.000037
    85  C   -0.062432  -0.000020
    86  C   -0.456355  -0.000778
    87  P    0.194084  -0.020148
    88  H    0.063698  -0.000710
    89  C    0.000958  -0.000449
    90  H    0.099853  -0.000041
    91  H    0.085658  -0.001218
    92  H    0.045076  -0.000033
    93  C    0.001384   0.000190
    94  H    0.041891  -0.000336
    95  C   -0.084872  -0.015300
    96  C   -0.002639  -0.000332
    97  H    0.067393   0.000009
    98  C   -0.030231   0.000298
    99  H    0.044581   0.000027
   100  H    0.048174  -0.000016
   101  C    0.027208  -0.004104
   102  N   -0.298976   0.069154
   103  C   -0.121170   0.001118
   104  H    0.058948   0.000004
   105  H    0.055432  -0.000273
   106  H    0.055023   0.000099
   107  H    0.067160   0.000008
   108  C   -0.090673   0.001644
   109  H    0.064499  -0.000027
   110  H    0.052983   0.000009
   111  C    0.059929  -0.004485
   112  C   -0.054304   0.006026
   113  H    0.061707  -0.000015
   114  H    0.030495   0.001435
   115  H    0.115717  -0.000357
   116  H    0.084109  -0.000907
   117  C   -0.052095   0.005203
   118  C    0.073820  -0.005436
   119  H    0.030961   0.001226
   120  H    0.043890   0.000133
   121  H    0.259152  -0.002676
   122  O   -0.234258   0.004251
   123  H    0.066045  -0.000042
   124  H    0.056744  -0.000018
   125  H    0.065030   0.000220
   126  H    0.106119  -0.000865
   127  H    0.087419  -0.000688
   128  H    0.193726  -0.002249
 Sum of Mulliken charges =  -0.00000   2.00000

 Dipole moment (field-independent basis, Debye):
    X=              3.8972    Y=            -15.1856    Z=              2.0652  Tot=             15.8132
 Quadrupole moment (field-independent basis, Debye-Ang):
   XX=           -281.2907   YY=           -338.0668   ZZ=           -371.9748
   XY=            -19.3886   XZ=            -47.5901   YZ=             -7.2357

 Normal termination of Gaussian 16 at Sat Mar 14 23:31:49 2020.
