 Gaussian 16, Revision A.03,
 Gaussian 16:  ES64L-G16RevA.03 25-Dec-2016

 ----------------------------------------------------------------------
 # nmr genecp pbe1pbe EmpiricalDispersion=GD3BJ scrf=(SMD,solvent=water
 ) geom=allcheck
 ----------------------------------------------------------------------

 Structure from the checkpoint file:  "/scratch/js1212.15461/2-Full-TPy-A-GPOF.chk"
 -------------------
 Title Card Required
 -------------------
 Charge =  0 Multiplicity = 1

                         Standard orientation:
 ---------------------------------------------------------------------
 Center     Atomic      Atomic             Coordinates (Angstroms)
 Number     Number       Type             X           Y           Z
 ---------------------------------------------------------------------
      1          7           0       -0.746353    1.307301   -0.320332
      2          6           0       -1.938782    1.841970   -0.016431
      3          6           0        0.188681    2.012743   -0.977758
      4          6           0       -2.253892    3.144574   -0.393076
      5          6           0       -1.298251    3.895096   -1.073403
      6          6           0       -0.061759    3.329370   -1.366752
      7          6           0       -2.843041    0.974461    0.814715
      8          1           0       -3.231082    3.562087   -0.147242
      9          1           0       -1.517489    4.920935   -1.375883
     10          1           0        0.704797    3.897054   -1.895529
     11          6           0        1.484783    1.309073   -1.270725
     12          7           0       -2.843411   -0.425747    0.381175
     13          1           0       -3.859529    1.406633    0.852741
     14          1           0       -2.412904    0.966299    1.830542
     15          1           0        1.397963    0.819016   -2.256306
     16         15           0        1.799471   -0.102071   -0.064438
     17          1           0        2.316364    2.026631   -1.335540
     18         44           0       -0.321746   -0.781301    0.273586
     19          6           0       -3.461834   -0.599190   -0.941897
     20          6           0        3.109158   -1.145268   -0.977074
     21          6           0       -3.422103   -1.266696    1.436223
     22          6           0        2.611556    0.774864    1.425594
     23          6           0        2.394569   -2.027432   -2.000087
     24          6           0        3.800094   -2.069755    0.027015
     25          6           0        4.140045   -0.297752   -1.728641
     26          6           0        1.692988    1.938324    1.819480
     27          6           0        4.006047    1.332562    1.144472
     28          6           0        2.663008   -0.199053    2.605505
     29          1           0        0.010263   -2.255751    0.835305
     30          1           0       -2.918359    0.060979   -1.635516
     31          6           0       -4.957591   -0.327544   -1.028947
     32          1           0       -3.247900   -1.622626   -1.277300
     33          1           0       -2.815562   -1.053750    2.329174
     34          6           0       -3.360800   -2.745850    1.117433
     35          1           0       -4.464414   -0.956521    1.654551
     36          6           0       -0.501265   -1.514060   -1.385314
     37          8           0       -0.579858   -0.112837    2.250772
     38          1           0       -0.372452   -0.847088    2.840194
     39          1           0       -2.327167   -3.028464    0.861109
     40          1           0       -4.021631   -3.033052    0.285315
     41          1           0       -3.672108   -3.324840    1.999455
     42          1           0       -5.291912   -0.470738   -2.067465
     43          1           0       -5.218467    0.702303   -0.740894
     44          1           0       -5.541323   -1.014262   -0.397481
     45          1           0        3.154367   -2.602992   -2.554655
     46          1           0        1.819379   -1.447117   -2.735497
     47          1           0        1.711356   -2.735302   -1.514565
     48          1           0        4.412256   -2.802299   -0.524749
     49          1           0        3.062641   -2.628406    0.623412
     50          1           0        4.469061   -1.530415    0.710809
     51          1           0        4.865716   -0.974389   -2.210235
     52          1           0        4.704700    0.382693   -1.081980
     53          1           0        3.674783    0.294041   -2.530929
     54          1           0        4.758383    0.549203    0.980044
     55          1           0        4.328842    1.912470    2.025439
     56          1           0        4.021443    2.019814    0.284371
     57          1           0        3.312049   -1.064401    2.422127
     58          1           0        1.649261   -0.548908    2.835812
     59          1           0        3.055474    0.334927    3.487413
     60          1           0        2.106332    2.403745    2.730462
     61          1           0        0.682341    1.566155    2.048029
     62          1           0        1.652547    2.721590    1.047248
     63          8           0       -0.746964   -2.015967   -2.410885
 ---------------------------------------------------------------------

 SCF Done:  E(RPBE1PBE) =  -1479.80913296     A.U. after   17 cycles

      1  N    Isotropic =   -38.5257   Anisotropy =   397.7058

      2  C    Isotropic =    20.2100   Anisotropy =   175.3052

      3  C    Isotropic =    19.6513   Anisotropy =   180.7917

      4  C    Isotropic =    62.7841   Anisotropy =   166.2233

      5  C    Isotropic =    43.5923   Anisotropy =   205.4331

      6  C    Isotropic =    61.6877   Anisotropy =   167.1606

      7  C    Isotropic =   127.5451   Anisotropy =    55.5805

      8  H    Isotropic =    23.6986   Anisotropy =     7.3052

      9  H    Isotropic =    23.2195   Anisotropy =     4.4351

     10  H    Isotropic =    23.4378   Anisotropy =     8.3298

     11  C    Isotropic =   143.8788   Anisotropy =    36.2237

     12  N    Isotropic =   189.0706   Anisotropy =    77.5371

     13  H    Isotropic =    27.4539   Anisotropy =     7.8948

     14  H    Isotropic =    26.0488   Anisotropy =     4.9759

     15  H    Isotropic =    27.6141   Anisotropy =     4.8589

     16  P    Isotropic =   181.8956   Anisotropy =   262.2264

     17  H    Isotropic =    27.3378   Anisotropy =     7.9760

     18  Ru   Isotropic =  -444.8757   Anisotropy =   168.0958

     19  C    Isotropic =   141.0333   Anisotropy =    40.8284

     20  C    Isotropic =   144.9894   Anisotropy =    28.8886

     21  C    Isotropic =   141.8041   Anisotropy =    50.4211

     22  C    Isotropic =   142.4508   Anisotropy =    28.6017

     23  C    Isotropic =   151.9413   Anisotropy =    36.6074

     24  C    Isotropic =   159.4102   Anisotropy =    30.7484

     25  C    Isotropic =   161.6145   Anisotropy =    36.5758

     26  C    Isotropic =   156.6416   Anisotropy =    34.6214

     27  C    Isotropic =   158.6995   Anisotropy =    32.6493

     28  C    Isotropic =   158.5847   Anisotropy =    38.8511

     29  H    Isotropic =    40.4922   Anisotropy =    17.8629

     30  H    Isotropic =    28.5866   Anisotropy =     6.2611

     31  C    Isotropic =   183.6391   Anisotropy =    11.7267

     32  H    Isotropic =    27.8963   Anisotropy =     5.1560

     33  H    Isotropic =    28.2539   Anisotropy =     4.7681

     34  C    Isotropic =   170.5833   Anisotropy =    26.9583

     35  H    Isotropic =    28.7881   Anisotropy =     7.9654

     36  C    Isotropic =   -46.3556   Anisotropy =   458.6862

     37  O    Isotropic =   318.4172   Anisotropy =   157.6221

     38  H    Isotropic =    31.3387   Anisotropy =    15.8457

     39  H    Isotropic =    29.8033   Anisotropy =     8.8248

     40  H    Isotropic =    29.7676   Anisotropy =     8.0843

     41  H    Isotropic =    30.1105   Anisotropy =    12.2019

     42  H    Isotropic =    30.7766   Anisotropy =    12.1197

     43  H    Isotropic =    30.0497   Anisotropy =     9.1677

     44  H    Isotropic =    30.1842   Anisotropy =     9.3827

     45  H    Isotropic =    30.4363   Anisotropy =     9.9373

     46  H    Isotropic =    29.8193   Anisotropy =     6.1261

     47  H    Isotropic =    29.8567   Anisotropy =     6.6605

     48  H    Isotropic =    30.2760   Anisotropy =    10.6226

     49  H    Isotropic =    29.7954   Anisotropy =     6.3078

     50  H    Isotropic =    29.5275   Anisotropy =     7.1019

     51  H    Isotropic =    30.3203   Anisotropy =    11.2642

     52  H    Isotropic =    29.2058   Anisotropy =     6.9432

     53  H    Isotropic =    29.9359   Anisotropy =     7.4844

     54  H    Isotropic =    29.4760   Anisotropy =     7.6887

     55  H    Isotropic =    30.4298   Anisotropy =    10.4595

     56  H    Isotropic =    29.5677   Anisotropy =     7.0901

     57  H    Isotropic =    29.6064   Anisotropy =     6.9178

     58  H    Isotropic =    29.1621   Anisotropy =     8.8306

     59  H    Isotropic =    30.6939   Anisotropy =    10.6284

     60  H    Isotropic =    31.2308   Anisotropy =     9.7207

     61  H    Isotropic =    28.6080   Anisotropy =    10.6970

     62  H    Isotropic =    31.0731   Anisotropy =     6.9043

     63  O    Isotropic =   -42.9758   Anisotropy =   589.5584

 The electronic state is 1-A.
 Alpha  occ. eigenvalues --  -77.25795 -19.24117 -19.13513 -14.41810 -14.40860
 Alpha  occ. eigenvalues --  -10.30722 -10.28577 -10.27969 -10.25017 -10.24919
 Alpha  occ. eigenvalues --  -10.24729 -10.24686 -10.24180 -10.23918 -10.23785
 Alpha  occ. eigenvalues --  -10.23758 -10.23501 -10.20882 -10.20763 -10.20756
 Alpha  occ. eigenvalues --  -10.20620 -10.20596 -10.20447 -10.20176 -10.19884
 Alpha  occ. eigenvalues --   -6.63108  -4.76779  -4.76701  -4.76489  -3.03343
 Alpha  occ. eigenvalues --   -1.87392  -1.86212  -1.85426  -1.11782  -0.99852
 Alpha  occ. eigenvalues --   -0.95864  -0.92580  -0.84943  -0.83373  -0.82891
 Alpha  occ. eigenvalues --   -0.82475  -0.77622  -0.76580  -0.73762  -0.70525
 Alpha  occ. eigenvalues --   -0.70112  -0.69762  -0.69434  -0.69079  -0.65751
 Alpha  occ. eigenvalues --   -0.65548  -0.62829  -0.61709  -0.57148  -0.56369
 Alpha  occ. eigenvalues --   -0.55935  -0.53094  -0.52614  -0.51632  -0.50615
 Alpha  occ. eigenvalues --   -0.49487  -0.48270  -0.47236  -0.46306  -0.45800
 Alpha  occ. eigenvalues --   -0.45546  -0.45380  -0.45216  -0.44475  -0.44230
 Alpha  occ. eigenvalues --   -0.43830  -0.43789  -0.43552  -0.43030  -0.42418
 Alpha  occ. eigenvalues --   -0.41745  -0.41484  -0.40711  -0.40560  -0.39981
 Alpha  occ. eigenvalues --   -0.39062  -0.38742  -0.38302  -0.37941  -0.37904
 Alpha  occ. eigenvalues --   -0.37668  -0.36781  -0.36410  -0.36163  -0.35904
 Alpha  occ. eigenvalues --   -0.35273  -0.34907  -0.34711  -0.34214  -0.33897
 Alpha  occ. eigenvalues --   -0.33533  -0.32952  -0.32476  -0.31504  -0.30888
 Alpha  occ. eigenvalues --   -0.30049  -0.29657  -0.27669  -0.27355  -0.26722
 Alpha  occ. eigenvalues --   -0.25848  -0.22778  -0.22483  -0.20633
 Alpha virt. eigenvalues --   -0.03872  -0.01922  -0.01488   0.00702   0.01409
 Alpha virt. eigenvalues --    0.02985   0.03049   0.03531   0.03808   0.05945
 Alpha virt. eigenvalues --    0.06715   0.07406   0.07644   0.07731   0.08223

 Mulliken charges:
               1
     1  N   -0.172423
     2  C    0.113204
     3  C    0.048893
     4  C   -0.163983
     5  C   -0.131335
     6  C   -0.142685
     7  C   -0.115147
     8  H    0.159795
     9  H    0.161885
    10  H    0.162604
    11  C   -0.209576
    12  N   -0.192325
    13  H    0.121964
    14  H    0.167996
    15  H    0.161806
    16  P    0.139985
    17  H    0.149445
    18  Ru   0.537454
    19  C   -0.102545
    20  C    0.004719
    21  C   -0.113200
    22  C    0.012144
    23  C   -0.349608
    24  C   -0.343023
    25  C   -0.333431
    26  C   -0.378339
    27  C   -0.332267
    28  C   -0.351100
    29  H   -0.268401
    30  H    0.130487
    31  C   -0.326522
    32  H    0.122419
    33  H    0.126952
    34  C   -0.340042
    35  H    0.106507
    36  C   -0.128664
    37  O   -0.722768
    38  H    0.269807
    39  H    0.126482
    40  H    0.111157
    41  H    0.116703
    42  H    0.114536
    43  H    0.109546
    44  H    0.109304
    45  H    0.110580
    46  H    0.120171
    47  H    0.131940
    48  H    0.108763
    49  H    0.126758
    50  H    0.121761
    51  H    0.110030
    52  H    0.125876
    53  H    0.114303
    54  H    0.118007
    55  H    0.107748
    56  H    0.116475
    57  H    0.119991
    58  H    0.126897
    59  H    0.105558
    60  H    0.107303
    61  H    0.146757
    62  H    0.112844
    63  O   -0.300172
 Sum of Mulliken charges =  -0.00000

 Dipole moment (field-independent basis, Debye):
    X=              1.0607    Y=              7.8826    Z=             -3.5825  Tot=              8.7232
 Quadrupole moment (field-independent basis, Debye-Ang):
   XX=           -149.3199   YY=           -175.1421   ZZ=           -193.3661
   XY=             -4.4082   XZ=             -4.4202   YZ=            -12.0827

 Normal termination of Gaussian 16 at Mon Nov 12 23:58:42 2018.
