 Gaussian 16, Revision A.03,
 Gaussian 16:  ES64L-G16RevA.03 25-Dec-2016

 ----------------------------------------------------------------------
 # genecp pbe1pbe EmpiricalDispersion=GD3BJ scrf=(SMD,solvent=water) ge
 om=allcheck guess=Read
 ----------------------------------------------------------------------

 Structure from the checkpoint file:  "/scratch/js1212.771281/3-HCis-D-0-GP-SMD-Guess.chk"
 -------------------
 Title Card Required
 -------------------
 Charge =  0 Multiplicity = 2

                         Standard orientation:
 ---------------------------------------------------------------------
 Center     Atomic      Atomic             Coordinates (Angstroms)
 Number     Number       Type             X           Y           Z
 ---------------------------------------------------------------------
      1          7           0       -0.740744    1.421385   -0.097334
      2          6           0       -1.962889    1.883742    0.220318
      3          6           0        0.176224    2.217374   -0.682536
      4          6           0       -2.302035    3.215577    0.020287
      5          6           0       -1.345983    4.073481   -0.520011
      6          6           0       -0.101689    3.569518   -0.882573
      7          6           0       -2.884302    0.850966    0.802167
      8          1           0       -3.300153    3.569857    0.280000
      9          1           0       -1.579193    5.127783   -0.678875
     10          1           0        0.652118    4.212281   -1.338543
     11          6           0        1.444481    1.563067   -1.139854
     12          7           0       -2.704391   -0.462303    0.154727
     13          1           0       -3.930707    1.199114    0.749166
     14          1           0       -2.639637    0.726296    1.869842
     15          1           0        1.252535    1.191978   -2.160658
     16         15           0        1.781325   -0.010082   -0.185180
     17          1           0        2.283035    2.273669   -1.169649
     18         44           0       -0.396009   -0.598686    0.121018
     19          6           0       -3.209089   -0.435906   -1.239049
     20          6           0        2.856482   -1.047030   -1.354914
     21          6           0       -3.368426   -1.499991    0.974907
     22          6           0        2.783938    0.592299    1.313989
     23          6           0        1.900696   -1.730179   -2.337636
     24          6           0        3.557246   -2.143413   -0.550425
     25          6           0        3.875988   -0.217106   -2.136839
     26          6           0        1.994130    1.739647    1.954768
     27          6           0        4.169400    1.117614    0.936849
     28          6           0        2.929472   -0.533359    2.341605
     29          6           0       -0.400040   -0.686863    1.976174
     30          8           0       -0.475617   -0.779101    3.135268
     31          1           0       -2.681794    0.383065   -1.749602
     32          6           0       -4.712700   -0.284454   -1.405585
     33          1           0       -2.839824   -1.347074   -1.724055
     34          1           0       -2.871876   -1.482615    1.956548
     35          6           0       -3.263823   -2.886465    0.375567
     36          1           0       -4.424733   -1.212017    1.147899
     37          8           0       -0.181698   -2.648429   -0.043577
     38          1           0        0.146467   -3.011572    0.787961
     39          8           0       -0.545642   -0.561342   -1.855326
     40          1           0       -2.211261   -3.091382    0.107799
     41          1           0       -3.898030   -3.003667   -0.515915
     42          1           0       -3.602439   -3.623932    1.118924
     43          1           0       -4.942647   -0.244410   -2.480804
     44          1           0       -5.107426    0.641452   -0.958342
     45          1           0       -5.272856   -1.131840   -0.983418
     46          1           0        2.499693   -2.369029   -3.009348
     47          1           0        1.346624   -1.006515   -2.952955
     48          1           0        1.160928   -2.344757   -1.800281
     49          1           0        4.021595   -2.852166   -1.255672
     50          1           0        2.833944   -2.708238    0.056596
     51          1           0        4.355499   -1.757788    0.099621
     52          1           0        4.424346   -0.890997   -2.816277
     53          1           0        4.617447    0.283403   -1.501271
     54          1           0        3.388804    0.541685   -2.767015
     55          1           0        4.838452    0.319219    0.589107
     56          1           0        4.634192    1.568823    1.829507
     57          1           0        4.127585    1.897764    0.161599
     58          1           0        3.525902   -1.372514    1.964093
     59          1           0        1.956943   -0.922460    2.665217
     60          1           0        3.441262   -0.135023    3.233712
     61          1           0        2.494396    2.032358    2.892421
     62          1           0        0.963815    1.448467    2.199486
     63          1           0        1.958634    2.630499    1.310201
 ---------------------------------------------------------------------

 SCF Done:  E(UPBE1PBE) =  -1554.33849227     A.U. after   23 cycles

 The electronic state is 2-A.
 Alpha  occ. eigenvalues --  -77.25637 -19.25837 -19.17737 -19.13819 -14.43333
 Alpha  occ. eigenvalues --  -14.42854 -10.31711 -10.28966 -10.28519 -10.26121
 Alpha  occ. eigenvalues --  -10.25162 -10.25145 -10.24952 -10.24662 -10.24433
 Alpha  occ. eigenvalues --  -10.24180 -10.24110 -10.23637 -10.20948 -10.20945
 Alpha  occ. eigenvalues --  -10.20882 -10.20812 -10.20775 -10.20671 -10.19848
 Alpha  occ. eigenvalues --  -10.19829  -6.63082  -4.76747  -4.76659  -4.76455
 Alpha  occ. eigenvalues --   -3.05109  -1.89162  -1.87785  -1.87370  -1.13289
 Alpha  occ. eigenvalues --   -1.00857  -0.96868  -0.92877  -0.90922  -0.85189
 Alpha  occ. eigenvalues --   -0.83842  -0.83377  -0.82715  -0.77754  -0.77166
 Alpha  occ. eigenvalues --   -0.74178  -0.70595  -0.70426  -0.70171  -0.69659
 Alpha  occ. eigenvalues --   -0.69229  -0.66183  -0.65993  -0.63294  -0.62148
 Alpha  occ. eigenvalues --   -0.57745  -0.57540  -0.56192  -0.53536  -0.53209
 Alpha  occ. eigenvalues --   -0.52141  -0.51306  -0.50358  -0.48567  -0.47779
 Alpha  occ. eigenvalues --   -0.46986  -0.46345  -0.46152  -0.46045  -0.45451
 Alpha  occ. eigenvalues --   -0.45217  -0.44727  -0.44480  -0.44308  -0.43659
 Alpha  occ. eigenvalues --   -0.43628  -0.42934  -0.42345  -0.41933  -0.41822
 Alpha  occ. eigenvalues --   -0.41146  -0.40148  -0.39665  -0.39176  -0.38940
 Alpha  occ. eigenvalues --   -0.38587  -0.38300  -0.38067  -0.37088  -0.36792
 Alpha  occ. eigenvalues --   -0.36567  -0.36327  -0.35996  -0.35573  -0.34823
 Alpha  occ. eigenvalues --   -0.34762  -0.34281  -0.34082  -0.33639  -0.33320
 Alpha  occ. eigenvalues --   -0.32850  -0.32612  -0.31622  -0.31060  -0.29739
 Alpha  occ. eigenvalues --   -0.29440  -0.28600  -0.28166  -0.27063  -0.26869
 Alpha  occ. eigenvalues --   -0.23708  -0.21505  -0.19762
 Alpha virt. eigenvalues --   -0.04148  -0.02227  -0.00330   0.00569   0.01473
 Alpha virt. eigenvalues --    0.02100   0.02329   0.03071   0.03367   0.05145
 Alpha virt. eigenvalues --    0.06093   0.07548   0.07609   0.07828   0.07912

  Beta  occ. eigenvalues --  -77.25634 -19.25768 -19.15373 -19.13820 -14.43327
  Beta  occ. eigenvalues --  -14.42809 -10.31701 -10.28969 -10.28522 -10.26122
  Beta  occ. eigenvalues --  -10.25164 -10.25148 -10.24955 -10.24664 -10.24409
  Beta  occ. eigenvalues --  -10.24177 -10.24107 -10.23638 -10.20949 -10.20945
  Beta  occ. eigenvalues --  -10.20881 -10.20811 -10.20775 -10.20672 -10.19829
  Beta  occ. eigenvalues --  -10.19813  -6.63078  -4.76745  -4.76657  -4.76447
  Beta  occ. eigenvalues --   -3.04806  -1.88743  -1.87341  -1.87207  -1.13177
  Beta  occ. eigenvalues --   -1.00837  -0.96807  -0.92846  -0.85434  -0.84018
  Beta  occ. eigenvalues --   -0.83663  -0.83306  -0.82608  -0.77705  -0.77150
  Beta  occ. eigenvalues --   -0.74164  -0.70593  -0.70405  -0.70158  -0.69659
  Beta  occ. eigenvalues --   -0.69138  -0.66153  -0.65979  -0.63286  -0.62143
  Beta  occ. eigenvalues --   -0.57666  -0.57359  -0.56181  -0.53486  -0.53185
  Beta  occ. eigenvalues --   -0.52083  -0.51276  -0.50292  -0.48445  -0.47755
  Beta  occ. eigenvalues --   -0.46858  -0.46248  -0.46032  -0.45876  -0.45425
  Beta  occ. eigenvalues --   -0.45201  -0.44651  -0.44379  -0.44186  -0.43589
  Beta  occ. eigenvalues --   -0.43495  -0.42830  -0.42283  -0.41847  -0.41590
  Beta  occ. eigenvalues --   -0.41023  -0.40136  -0.39435  -0.39018  -0.38739
  Beta  occ. eigenvalues --   -0.38521  -0.38266  -0.38060  -0.37062  -0.36766
  Beta  occ. eigenvalues --   -0.36478  -0.36255  -0.35883  -0.35299  -0.34795
  Beta  occ. eigenvalues --   -0.34425  -0.34231  -0.33711  -0.33248  -0.32864
  Beta  occ. eigenvalues --   -0.32662  -0.31913  -0.30221  -0.29911  -0.28771
  Beta  occ. eigenvalues --   -0.28122  -0.27998  -0.26853  -0.26630  -0.25334
  Beta  occ. eigenvalues --   -0.20678  -0.19689
  Beta virt. eigenvalues --   -0.08090  -0.04127  -0.02223   0.00126   0.00675
  Beta virt. eigenvalues --    0.01524   0.02334   0.03039   0.03196   0.03367
  Beta virt. eigenvalues --    0.05350   0.06159   0.07611   0.07632   0.07843

 Mulliken charges and spin densities:
               1          2
     1  N   -0.145698   0.001409
     2  C    0.100816   0.000015
     3  C    0.072597  -0.003742
     4  C   -0.153107   0.001632
     5  C   -0.130524  -0.001830
     6  C   -0.132781   0.000923
     7  C   -0.087053   0.001550
     8  H    0.162927  -0.000076
     9  H    0.163772   0.000097
    10  H    0.163474  -0.000030
    11  C   -0.228575  -0.000117
    12  N   -0.227760   0.012878
    13  H    0.129244  -0.000169
    14  H    0.169931  -0.000347
    15  H    0.171325   0.000227
    16  P    0.147337   0.005770
    17  H    0.152220  -0.000849
    18  Ru   0.613191   0.022840
    19  C   -0.105673   0.014311
    20  C   -0.001225   0.000375
    21  C   -0.107969  -0.001399
    22  C   -0.007716  -0.001490
    23  C   -0.365809   0.009440
    24  C   -0.341340   0.000395
    25  C   -0.328433   0.000133
    26  C   -0.349814  -0.000336
    27  C   -0.333427  -0.000029
    28  C   -0.347135   0.000054
    29  C   -0.106698   0.024681
    30  O   -0.260385   0.023510
    31  H    0.140889  -0.000721
    32  C   -0.325049   0.000169
    33  H    0.141326  -0.001541
    34  H    0.138449   0.000213
    35  C   -0.358387   0.000257
    36  H    0.113906   0.000548
    37  O   -0.694519   0.001091
    38  H    0.253199  -0.001204
    39  O   -0.555805   0.886280
    40  H    0.137222   0.000258
    41  H    0.106838  -0.000057
    42  H    0.111870  -0.000013
    43  H    0.117426   0.000715
    44  H    0.110443   0.000126
    45  H    0.111445   0.000834
    46  H    0.106410   0.005355
    47  H    0.120452  -0.000953
    48  H    0.150332  -0.000573
    49  H    0.108270   0.000017
    50  H    0.120967  -0.000071
    51  H    0.122193   0.000049
    52  H    0.109098  -0.000027
    53  H    0.122307  -0.000016
    54  H    0.114752  -0.000023
    55  H    0.120651   0.000011
    56  H    0.109859  -0.000065
    57  H    0.119544  -0.000003
    58  H    0.122281   0.000050
    59  H    0.131402  -0.000302
    60  H    0.109634   0.000036
    61  H    0.114378  -0.000045
    62  H    0.144060  -0.000241
    63  H    0.118445   0.000022
 Sum of Mulliken charges =  -0.00000   1.00000

 Dipole moment (field-independent basis, Debye):
    X=              0.4625    Y=             11.9787    Z=              2.8104  Tot=             12.3127
 Quadrupole moment (field-independent basis, Debye-Ang):
   XX=           -146.6660   YY=           -179.9494   ZZ=           -200.9246
   XY=             -6.8494   XZ=             -5.4009   YZ=             -9.2214

 Normal termination of Gaussian 16 at Sun Aug 30 00:23:36 2020.
