 Gaussian 16, Revision A.03,
 Gaussian 16:  ES64L-G16RevA.03 25-Dec-2016

 ----------------------------------------------------------------------
 # genecp pbe1pbe EmpiricalDispersion=GD3BJ scrf=(SMD,solvent=water) td
 =nstates=25 geom=allcheck
 ----------------------------------------------------------------------

 Structure from the checkpoint file:  "/scratch/js1212.769346/3-HCis-GP-D-0-TD-SMD-NStates25.chk"
 -------------------
 Title Card Required
 -------------------
 Charge =  0 Multiplicity = 2

                         Standard orientation:
 ---------------------------------------------------------------------
 Center     Atomic      Atomic             Coordinates (Angstroms)
 Number     Number       Type             X           Y           Z
 ---------------------------------------------------------------------
      1          7           0       -0.740744    1.421385   -0.097334
      2          6           0       -1.962889    1.883742    0.220318
      3          6           0        0.176224    2.217374   -0.682536
      4          6           0       -2.302035    3.215577    0.020287
      5          6           0       -1.345983    4.073481   -0.520011
      6          6           0       -0.101689    3.569518   -0.882573
      7          6           0       -2.884302    0.850966    0.802167
      8          1           0       -3.300153    3.569857    0.280000
      9          1           0       -1.579193    5.127783   -0.678875
     10          1           0        0.652118    4.212281   -1.338543
     11          6           0        1.444481    1.563067   -1.139854
     12          7           0       -2.704391   -0.462303    0.154727
     13          1           0       -3.930707    1.199114    0.749166
     14          1           0       -2.639637    0.726296    1.869842
     15          1           0        1.252535    1.191978   -2.160658
     16         15           0        1.781325   -0.010082   -0.185180
     17          1           0        2.283035    2.273669   -1.169649
     18         44           0       -0.396009   -0.598686    0.121018
     19          6           0       -3.209089   -0.435906   -1.239049
     20          6           0        2.856482   -1.047030   -1.354914
     21          6           0       -3.368426   -1.499991    0.974907
     22          6           0        2.783938    0.592299    1.313989
     23          6           0        1.900696   -1.730179   -2.337636
     24          6           0        3.557246   -2.143413   -0.550425
     25          6           0        3.875988   -0.217106   -2.136839
     26          6           0        1.994130    1.739647    1.954768
     27          6           0        4.169400    1.117614    0.936849
     28          6           0        2.929472   -0.533359    2.341605
     29          6           0       -0.400040   -0.686863    1.976174
     30          8           0       -0.475617   -0.779101    3.135268
     31          1           0       -2.681794    0.383065   -1.749602
     32          6           0       -4.712700   -0.284454   -1.405585
     33          1           0       -2.839824   -1.347074   -1.724055
     34          1           0       -2.871876   -1.482615    1.956548
     35          6           0       -3.263823   -2.886465    0.375567
     36          1           0       -4.424733   -1.212017    1.147899
     37          8           0       -0.181698   -2.648429   -0.043577
     38          1           0        0.146467   -3.011572    0.787961
     39          8           0       -0.545642   -0.561342   -1.855326
     40          1           0       -2.211261   -3.091382    0.107799
     41          1           0       -3.898030   -3.003667   -0.515915
     42          1           0       -3.602439   -3.623932    1.118924
     43          1           0       -4.942647   -0.244410   -2.480804
     44          1           0       -5.107426    0.641452   -0.958342
     45          1           0       -5.272856   -1.131840   -0.983418
     46          1           0        2.499693   -2.369029   -3.009348
     47          1           0        1.346624   -1.006515   -2.952955
     48          1           0        1.160928   -2.344757   -1.800281
     49          1           0        4.021595   -2.852166   -1.255672
     50          1           0        2.833944   -2.708238    0.056596
     51          1           0        4.355499   -1.757788    0.099621
     52          1           0        4.424346   -0.890997   -2.816277
     53          1           0        4.617447    0.283403   -1.501271
     54          1           0        3.388804    0.541685   -2.767015
     55          1           0        4.838452    0.319219    0.589107
     56          1           0        4.634192    1.568823    1.829507
     57          1           0        4.127585    1.897764    0.161599
     58          1           0        3.525902   -1.372514    1.964093
     59          1           0        1.956943   -0.922460    2.665217
     60          1           0        3.441262   -0.135023    3.233712
     61          1           0        2.494396    2.032358    2.892421
     62          1           0        0.963815    1.448467    2.199486
     63          1           0        1.958634    2.630499    1.310201
 ---------------------------------------------------------------------

 SCF Done:  E(UPBE1PBE) =  -1554.02378415     A.U. after   29 cycles

 Excitation energies and oscillator strengths:

 Excited State   1:  2.010-A      0.4723 eV 2625.11 nm  f=0.0000  <S**2>=0.760
    105B ->113B       -0.15078
    106B ->113B       -0.18651
    109B ->113B       -0.26671
    110B ->113B        0.23574
    111B ->113B        0.88648
    111B <-113B        0.15873
 This state for optimization and/or second-order correction.
 Total Energy, E(TD-HF/TD-DFT) =  -1554.00642739
 Copying the excited state density for this state as the 1-particle RhoCI density.

 Excited State   2:  2.122-A      1.5927 eV  778.43 nm  f=0.0004  <S**2>=0.876
    112B ->113B        0.98248

 Excited State   3:  2.011-A      2.2162 eV  559.44 nm  f=0.0029  <S**2>=0.761
    103B ->113B       -0.24759
    104B ->113B       -0.38686
    105B ->113B        0.31954
    106B ->113B       -0.26412
    107B ->113B        0.70387
    108B ->113B       -0.16340
    110B ->113B       -0.11787

 Excited State   4:  3.396-A      2.6787 eV  462.85 nm  f=0.0005  <S**2>=2.633
    113A ->116A        0.68807
    113A ->117A       -0.14750
    113A ->120A        0.16516
    112B ->113B        0.11474
    112B ->116B       -0.51788
    112B ->117B        0.25813

 Excited State   5:  2.222-A      2.7919 eV  444.08 nm  f=0.0043  <S**2>=0.985
    101B ->113B        0.11308
    105B ->113B       -0.14131
    106B ->113B       -0.23689
    108B ->113B       -0.14348
    109B ->113B       -0.40958
    110B ->113B        0.65147
    111B ->113B       -0.43804
    111B ->116B       -0.19279
    111B ->117B        0.12199

 Excited State   6:  3.451-A      3.1417 eV  394.64 nm  f=0.0001  <S**2>=2.728
    112A ->114A       -0.21930
    113A ->114A       -0.58411
    108B ->115B       -0.10904
    111B ->114B        0.27753
    112B ->114B        0.64708

 Excited State   7:  2.079-A      3.2311 eV  383.72 nm  f=0.0107  <S**2>=0.830
    112A ->116A        0.10839
    113A ->114A       -0.34022
    113A ->116A        0.48829
    105B ->113B       -0.10215
    106B ->113B       -0.13409
    109B ->113B       -0.13309
    110B ->113B       -0.16509
    112B ->114B       -0.24481
    112B ->116B        0.55934
    112B ->117B       -0.25366

 Excited State   8:  2.024-A      3.2541 eV  381.01 nm  f=0.0107  <S**2>=0.775
    113A ->114A        0.60367
    113A ->116A        0.25769
    112B ->114B        0.62305
    112B ->116B        0.30826
    112B ->117B       -0.13323

 Excited State   9:  2.908-A      3.3012 eV  375.57 nm  f=0.0077  <S**2>=1.864
    112A ->114A       -0.19952
    113A ->114A        0.12291
    113A ->116A        0.12020
    105B ->113B        0.11864
    106B ->113B        0.18904
    108B ->115B       -0.11592
    109B ->113B        0.25116
    110B ->113B        0.39930
    111B ->114B        0.64305
    111B ->116B        0.10711
    112B ->114B       -0.29551
    112B ->116B        0.11352

 Excited State  10:  2.958-A      3.3142 eV  374.10 nm  f=0.0094  <S**2>=1.937
    112A ->114A        0.36433
    112A ->116A       -0.25041
    113A ->114A       -0.35453
    113A ->116A        0.11353
    105B ->113B        0.13264
    106B ->113B        0.19226
    108B ->115B        0.10783
    109B ->113B        0.25997
    110B ->113B        0.45114
    111B ->114B       -0.30999
    111B ->116B        0.26494
    111B ->117B       -0.11872

 Excited State  11:  3.150-A      3.4633 eV  358.00 nm  f=0.0018  <S**2>=2.230
    112A ->114A        0.18359
    112A ->116A        0.59452
    112A ->117A       -0.16506
    112A ->120A        0.10755
    106B ->113B        0.17960
    109B ->113B        0.32973
    111B ->113B        0.12186
    111B ->116B       -0.44149
    111B ->117B        0.27619

 Excited State  12:  2.449-A      3.6270 eV  341.84 nm  f=0.0279  <S**2>=1.249
    109A ->115A       -0.17052
    110A ->115A        0.12933
    112A ->114A        0.55674
    101B ->114B       -0.10649
    108B ->115B        0.17905
    109B ->113B       -0.13934
    109B ->114B       -0.10870
    110B ->113B       -0.17841
    110B ->114B        0.15655
    111B ->114B        0.61799
    112B ->114B        0.10310

 Excited State  13:  3.447-A      3.6461 eV  340.05 nm  f=0.0000  <S**2>=2.721
    112A ->116A       -0.11148
    112A ->117A       -0.12345
    112A ->118A        0.17648
    113A ->115A        0.11536
    113A ->117A        0.43835
    113A ->118A       -0.27077
    113A ->120A        0.11561
    113A ->123A       -0.29628
    111B ->117B        0.14672
    111B ->118B       -0.21070
    111B ->119B       -0.11968
    112B ->115B       -0.10437
    112B ->116B       -0.11691
    112B ->117B       -0.38770
    112B ->118B        0.25842
    112B ->119B       -0.10884
    112B ->123B        0.27611

 Excited State  14:  3.362-A      3.7430 eV  331.24 nm  f=0.0009  <S**2>=2.576
    111A ->116A       -0.23884
    112A ->114A        0.14756
    112A ->116A        0.17110
    112A ->117A        0.21739
    112A ->118A       -0.31580
    112A ->120A       -0.15959
    112A ->121A       -0.11414
    113A ->117A        0.22299
    113A ->120A        0.16128
    113A ->123A       -0.18723
    111B ->115B       -0.18560
    111B ->117B       -0.32841
    111B ->118B        0.37665
    111B ->119B        0.23028
    111B ->120B        0.10129
    111B ->121B        0.12705
    112B ->117B       -0.17064
    112B ->119B       -0.11739
    112B ->123B        0.14024

 Excited State  15:  3.270-A      3.8168 eV  324.84 nm  f=0.0013  <S**2>=2.424
    109A ->115A        0.13911
    110A ->115A       -0.12783
    112A ->114A        0.30093
    113A ->115A       -0.30232
    108B ->115B       -0.19437
    112B ->115B        0.77768
    112B ->119B       -0.10740

 Excited State  16:  2.228-A      3.8552 eV  321.61 nm  f=0.0013  <S**2>=0.991
    113A ->115A        0.87646
    112B ->115B        0.42021

 Excited State  17:  3.209-A      3.8597 eV  321.23 nm  f=0.0047  <S**2>=2.324
    101A ->114A       -0.10314
    109A ->115A        0.26636
    110A ->115A       -0.18581
    111A ->114A        0.14676
    112A ->114A        0.48047
    112A ->116A       -0.13894
    113A ->115A        0.27271
    101B ->114B        0.11524
    106B ->115B        0.11510
    108B ->113B       -0.18454
    108B ->115B       -0.30613
    109B ->113B        0.13370
    109B ->114B        0.11574
    110B ->114B       -0.14981
    111B ->115B       -0.10977
    111B ->116B       -0.14425
    112B ->115B       -0.35306

 Excited State  18:  2.305-A      3.8859 eV  319.06 nm  f=0.0048  <S**2>=1.078
    111A ->116A       -0.11728
    112A ->114A        0.16643
    112A ->116A        0.46637
    112A ->117A       -0.16171
    105B ->113B        0.20872
    106B ->113B        0.15020
    108B ->113B        0.23559
    108B ->115B       -0.11237
    109B ->113B       -0.39263
    111B ->116B        0.47021
    111B ->117B       -0.18041
    111B ->118B       -0.10214
    112B ->115B       -0.15920

 Excited State  19:  2.185-A      3.9554 eV  313.45 nm  f=0.0013  <S**2>=0.943
    112A ->116A       -0.31806
    112A ->117A        0.12423
    113A ->119A       -0.10178
    113A ->120A        0.11498
    105B ->113B        0.26449
    106B ->113B        0.36738
    108B ->113B        0.48111
    109B ->113B       -0.40921
    111B ->116B       -0.38200
    111B ->117B        0.15429

 Excited State  20:  3.079-A      4.0145 eV  308.84 nm  f=0.0014  <S**2>=2.120
    109A ->114A        0.16130
    110A ->114A       -0.12904
    111A ->114A        0.15326
    111A ->116A       -0.32803
    111A ->117A        0.10398
    112A ->115A       -0.14788
    108B ->114B       -0.15570
    110B ->116B        0.10626
    111B ->115B        0.79986
    112B ->115B       -0.11885

 Excited State  21:  2.933-A      4.0440 eV  306.59 nm  f=0.0050  <S**2>=1.900
    111A ->116A        0.67038
    111A ->117A       -0.23868
    112A ->116A        0.16321
    112A ->117A        0.11789
    112A ->118A       -0.20668
    112A ->120A       -0.12712
    113A ->118A       -0.10479
    113A ->120A       -0.10198
    110B ->116B       -0.18463
    110B ->117B        0.13037
    111B ->115B        0.37339
    111B ->117B       -0.12659
    111B ->118B        0.10503

 Excited State  22:  3.257-A      4.0830 eV  303.66 nm  f=0.0006  <S**2>=2.402
    111A ->116A        0.16724
    112A ->120A       -0.10252
    113A ->116A       -0.10464
    113A ->118A        0.21396
    113A ->120A        0.43563
    113A ->123A       -0.20510
    109B ->113B        0.10723
    112B ->115B       -0.14999
    112B ->116B        0.17505
    112B ->117B        0.29990
    112B ->118B       -0.42128
    112B ->119B       -0.35458
    112B ->120B       -0.19573
    112B ->121B       -0.10429

 Excited State  23:  2.411-A      4.1221 eV  300.78 nm  f=0.0057  <S**2>=1.204
    109A ->114A        0.12697
    111A ->114A        0.20189
    112A ->115A       -0.11614
    113A ->116A        0.11282
    113A ->117A        0.47931
    113A ->118A       -0.43057
    113A ->120A       -0.20568
    108B ->114B       -0.17539
    111B ->115B       -0.11172
    112B ->116B        0.11284
    112B ->117B        0.41142
    112B ->118B       -0.22943
    112B ->123B       -0.18258

 Excited State  24:  3.180-A      4.1368 eV  299.71 nm  f=0.0001  <S**2>=2.277
    109A ->114A       -0.25413
    110A ->114A        0.18878
    111A ->114A       -0.22705
    112A ->115A        0.15407
    112A ->117A        0.18620
    112A ->119A        0.13052
    112A ->120A        0.26325
    112A ->123A       -0.25074
    113A ->117A        0.18592
    113A ->118A       -0.15806
    108B ->114B        0.32177
    111B ->115B        0.18235
    111B ->117B       -0.23195
    111B ->119B       -0.30401
    111B ->120B       -0.12840
    111B ->123B        0.26220
    112B ->117B        0.19797
    112B ->118B       -0.16273

 Excited State  25:  3.151-A      4.1658 eV  297.62 nm  f=0.0011  <S**2>=2.232
    109A ->114A       -0.25882
    109A ->115A        0.11978
    110A ->114A        0.18592
    111A ->114A       -0.16388
    111A ->116A       -0.15136
    112A ->114A        0.14127
    112A ->115A        0.32636
    112A ->117A       -0.19091
    112A ->119A       -0.11634
    112A ->120A       -0.20610
    112A ->123A        0.21119
    106B ->114B       -0.11537
    108B ->114B        0.34625
    108B ->115B       -0.12827
    111B ->115B        0.31321
    111B ->117B        0.18678
    111B ->119B        0.28491
    111B ->120B        0.10299
    111B ->123B       -0.24019

 The electronic state is 2-A.
 Alpha  occ. eigenvalues --  -77.25575 -19.27159 -19.19037 -19.15256 -14.44383
 Alpha  occ. eigenvalues --  -14.43747 -10.32435 -10.29683 -10.29242 -10.26921
 Alpha  occ. eigenvalues --  -10.25941 -10.25643 -10.25456 -10.25426 -10.25228
 Alpha  occ. eigenvalues --  -10.24980 -10.24910 -10.24443 -10.21929 -10.21916
 Alpha  occ. eigenvalues --  -10.21863 -10.21828 -10.21759 -10.21657 -10.20798
 Alpha  occ. eigenvalues --  -10.20785  -6.63562  -4.77196  -4.77109  -4.76901
 Alpha  occ. eigenvalues --   -3.04902  -1.89000  -1.87575  -1.87184  -1.13586
 Alpha  occ. eigenvalues --   -1.01066  -0.97000  -0.92716  -0.90829  -0.85248
 Alpha  occ. eigenvalues --   -0.83986  -0.83479  -0.82715  -0.77742  -0.77205
 Alpha  occ. eigenvalues --   -0.74248  -0.70562  -0.70441  -0.70142  -0.69622
 Alpha  occ. eigenvalues --   -0.69173  -0.66202  -0.66040  -0.63324  -0.62190
 Alpha  occ. eigenvalues --   -0.57673  -0.57497  -0.56126  -0.53472  -0.53146
 Alpha  occ. eigenvalues --   -0.52045  -0.51182  -0.50244  -0.48453  -0.47710
 Alpha  occ. eigenvalues --   -0.46836  -0.46213  -0.45985  -0.45884  -0.45274
 Alpha  occ. eigenvalues --   -0.45084  -0.44584  -0.44351  -0.44133  -0.43493
 Alpha  occ. eigenvalues --   -0.43447  -0.42774  -0.42179  -0.41766  -0.41662
 Alpha  occ. eigenvalues --   -0.40961  -0.39970  -0.39484  -0.39030  -0.38766
 Alpha  occ. eigenvalues --   -0.38429  -0.38112  -0.37875  -0.36970  -0.36620
 Alpha  occ. eigenvalues --   -0.36387  -0.36140  -0.35863  -0.35420  -0.34671
 Alpha  occ. eigenvalues --   -0.34574  -0.34116  -0.33893  -0.33456  -0.33160
 Alpha  occ. eigenvalues --   -0.32691  -0.32457  -0.31471  -0.30800  -0.29599
 Alpha  occ. eigenvalues --   -0.29051  -0.28304  -0.27824  -0.26926  -0.26759
 Alpha  occ. eigenvalues --   -0.23447  -0.21246  -0.19451
 Alpha virt. eigenvalues --   -0.03850  -0.01917  -0.00060   0.00790   0.01790
 Alpha virt. eigenvalues --    0.02437   0.02602   0.03713   0.03876   0.05730
 Alpha virt. eigenvalues --    0.06738   0.08977   0.09232   0.09622   0.09736

  Beta  occ. eigenvalues --  -77.25572 -19.27092 -19.16698 -19.15257 -14.44377
  Beta  occ. eigenvalues --  -14.43705 -10.32425 -10.29686 -10.29246 -10.26921
  Beta  occ. eigenvalues --  -10.25945 -10.25645 -10.25458 -10.25428 -10.25204
  Beta  occ. eigenvalues --  -10.24977 -10.24908 -10.24444 -10.21929 -10.21917
  Beta  occ. eigenvalues --  -10.21862 -10.21827 -10.21758 -10.21657 -10.20798
  Beta  occ. eigenvalues --  -10.20752  -6.63558  -4.77194  -4.77107  -4.76892
  Beta  occ. eigenvalues --   -3.04603  -1.88584  -1.87140  -1.87022  -1.13476
  Beta  occ. eigenvalues --   -1.01047  -0.96940  -0.92683  -0.85480  -0.84080
  Beta  occ. eigenvalues --   -0.83678  -0.83372  -0.82597  -0.77693  -0.77189
  Beta  occ. eigenvalues --   -0.74234  -0.70559  -0.70421  -0.70130  -0.69622
  Beta  occ. eigenvalues --   -0.69082  -0.66182  -0.66018  -0.63316  -0.62186
  Beta  occ. eigenvalues --   -0.57594  -0.57322  -0.56115  -0.53423  -0.53124
  Beta  occ. eigenvalues --   -0.51991  -0.51152  -0.50178  -0.48340  -0.47685
  Beta  occ. eigenvalues --   -0.46714  -0.46117  -0.45868  -0.45720  -0.45247
  Beta  occ. eigenvalues --   -0.45068  -0.44511  -0.44264  -0.43999  -0.43431
  Beta  occ. eigenvalues --   -0.43321  -0.42668  -0.42110  -0.41679  -0.41443
  Beta  occ. eigenvalues --   -0.40844  -0.39957  -0.39278  -0.38869  -0.38583
  Beta  occ. eigenvalues --   -0.38339  -0.38079  -0.37870  -0.36941  -0.36598
  Beta  occ. eigenvalues --   -0.36302  -0.36075  -0.35758  -0.35168  -0.34644
  Beta  occ. eigenvalues --   -0.34258  -0.34070  -0.33542  -0.33093  -0.32742
  Beta  occ. eigenvalues --   -0.32513  -0.31799  -0.30058  -0.29622  -0.28421
  Beta  occ. eigenvalues --   -0.27788  -0.27712  -0.26723  -0.26439  -0.25095
  Beta  occ. eigenvalues --   -0.20343  -0.19378
  Beta virt. eigenvalues --   -0.07745  -0.03828  -0.01912   0.00366   0.00922
  Beta virt. eigenvalues --    0.01857   0.02593   0.03457   0.03760   0.03900
  Beta virt. eigenvalues --    0.05958   0.06822   0.09006   0.09267   0.09661

 Mulliken charges and spin densities:
               1          2
     1  N   -0.311000   0.002349
     2  C    0.041594  -0.002079
     3  C    0.070075  -0.001704
     4  C   -0.047817   0.001821
     5  C    0.082206  -0.002025
     6  C   -0.043215   0.001514
     7  C    0.121166   0.000273
     8  H    0.036776  -0.000085
     9  H    0.048498   0.000095
    10  H    0.036343  -0.000018
    11  C   -0.077078   0.000268
    12  N   -0.384944   0.014903
    13  H    0.076446  -0.000281
    14  H    0.118086   0.000014
    15  H    0.135561   0.000078
    16  P    0.227274   0.000173
    17  H    0.093835  -0.000730
    18  Ru   0.010417   0.022901
    19  C   -0.037177   0.010044
    20  C   -0.462548  -0.000195
    21  C    0.000220  -0.001062
    22  C   -0.455953  -0.000772
    23  C   -0.016726   0.009030
    24  C   -0.019304   0.000379
    25  C   -0.001080   0.000275
    26  C   -0.024940  -0.000073
    27  C   -0.000899  -0.000020
    28  C   -0.018650  -0.000072
    29  C    0.003954   0.013810
    30  O   -0.160144   0.023631
    31  H    0.108274   0.000611
    32  C   -0.074470  -0.000095
    33  H    0.106089   0.000027
    34  H    0.081416   0.000376
    35  C   -0.123318   0.000093
    36  H    0.051593   0.000381
    37  O   -0.474866   0.000696
    38  H    0.183716  -0.000806
    39  O   -0.440071   0.898289
    40  H    0.100296   0.000275
    41  H    0.058005  -0.000032
    42  H    0.056954  -0.000016
    43  H    0.063649   0.000707
    44  H    0.063833   0.000224
    45  H    0.064289   0.000894
    46  H    0.042151   0.005234
    47  H    0.069542   0.000258
    48  H    0.102912   0.000924
    49  H    0.051565   0.000028
    50  H    0.077617  -0.000084
    51  H    0.066990   0.000076
    52  H    0.048346  -0.000065
    53  H    0.046676  -0.000050
    54  H    0.057183   0.000021
    55  H    0.066113   0.000012
    56  H    0.049997  -0.000038
    57  H    0.059921  -0.000003
    58  H    0.050563   0.000034
    59  H    0.080370  -0.000181
    60  H    0.050925   0.000026
    61  H    0.052970  -0.000031
    62  H    0.095256  -0.000241
    63  H    0.064538   0.000018
 Sum of Mulliken charges =  -0.00000   1.00000

 Dipole moment (field-independent basis, Debye):
    X=              0.5752    Y=             11.8284    Z=              2.9008  Tot=             12.1925
 Quadrupole moment (field-independent basis, Debye-Ang):
   XX=           -145.4575   YY=           -178.4282   ZZ=           -198.8977
   XY=             -6.9529   XZ=             -5.3872   YZ=             -9.0978

 Normal termination of Gaussian 16 at Thu Aug 20 16:33:45 2020.
