 Gaussian 16, Revision A.03,
 Gaussian 16:  ES64L-G16RevA.03 25-Dec-2016

 ----------------------------------------------------------------------
 # genecp pbe1pbe EmpiricalDispersion=GD3BJ scrf=(SMD,solvent=water) td
 =nstates=25 geom=allcheck
 ----------------------------------------------------------------------

 Structure from the checkpoint file:  "/scratch/js1212.758340/G-Cis-Mono-D-0-GP-TD-SMD.chk"
 -------------------
 Title Card Required
 -------------------
 Charge =  0 Multiplicity = 2

                         Standard orientation:
 ---------------------------------------------------------------------
 Center     Atomic      Atomic             Coordinates (Angstroms)
 Number     Number       Type             X           Y           Z
 ---------------------------------------------------------------------
      1          1           0       -3.597129   -3.370113    1.857318
      2          6           0       -3.306863   -2.758150    0.990150
      3          1           0       -4.054199   -2.935199    0.200575
      4          1           0       -2.306511   -3.082635    0.659236
      5          1           0        1.491095   -0.734730    2.727079
      6          8           0       -0.250256   -2.589751    0.683197
      7          1           0        4.338422   -1.680604    0.660414
      8          8           0       -0.484129   -0.197818    2.047271
      9          6           0       -3.234874   -1.310478    1.424884
     10          1           0        2.871474    0.053903    3.549599
     11          1           0       -4.223735   -0.939319    1.761293
     12          6           0        2.528412   -0.392895    2.600916
     13          1           0        2.864221   -2.662131    0.462699
     14          1           0        3.174291   -1.254187    2.388117
     15          1           0       -2.526818   -1.207638    2.260989
     16          6           0        3.654329   -2.118871   -0.078180
     17          1           0        4.229687   -2.851682   -0.667887
     18          1           0       -2.320812    0.922358    1.907819
     19         44           0       -0.395547   -0.613679    0.133940
     20          1           0        0.701775    1.557646    2.119869
     21          7           0       -2.705735   -0.404625    0.379714
     22          6           0       -2.751451    0.974965    0.891984
     23          6           0        2.595292    0.679326    1.507643
     24          1           0        2.145564    2.244474    2.908138
     25          1           0        4.765958    0.332183   -0.953647
     26          6           0        1.740844    1.873522    1.951710
     27          6           0        3.063172   -1.072327   -1.026160
     28         15           0        1.796539   -0.024484   -0.067510
     29          1           0       -3.781606    1.363076    0.964347
     30          6           0        4.171818   -0.239275   -1.675016
     31          1           0       -3.200253   -1.510105   -1.314261
     32          1           0       -5.438144   -1.026658   -0.236331
     33          1           0        4.859334   -0.919381   -2.205373
     34          6           0       -3.419839   -0.514416   -0.908036
     35          1           0        4.356122    1.648303    2.257633
     36          6           0       -0.576050   -1.063021   -1.672904
     37          6           0        4.031885    1.164782    1.320944
     38          1           0        1.568387   -2.502737   -1.741821
     39          6           0        2.326243   -1.815750   -2.140482
     40          1           0        4.737867    0.347811    1.119463
     41          1           0        3.060072   -2.410651   -2.708895
     42          6           0       -1.880569    1.908728    0.106738
     43          7           0       -0.693597    1.388922   -0.264248
     44          6           0       -4.924629   -0.290889   -0.872058
     45          1           0        1.778581    2.709725    1.236561
     46          1           0       -2.952080    0.208692   -1.594179
     47          1           0        3.772126    0.460096   -2.424816
     48          1           0       -5.199146    0.714945   -0.519974
     49          6           0        1.548564    1.471390   -1.177238
     50          1           0       -5.324984   -0.397662   -1.891433
     51          1           0        4.125622    1.915694    0.520595
     52          6           0        0.250024    2.151700   -0.854399
     53          6           0       -2.188302    3.238511   -0.155184
     54          1           0        1.831570   -1.138937   -2.851353
     55          1           0       -3.159039    3.638379    0.139745
     56          1           0        1.489762    1.057814   -2.199070
     57          1           0        2.383888    2.187307   -1.161700
     58          6           0       -0.001881    3.495245   -1.123106
     59          6           0       -1.235690    4.040032   -0.779877
     60          1           0        0.768502    4.104184   -1.597288
     61          1           0       -1.451562    5.088388   -0.992840
     62          8           0       -0.792621   -1.328014   -2.782118
     63          1           0        0.346447   -3.059661    0.089632
 ---------------------------------------------------------------------

 SCF Done:  E(UPBE1PBE) =  -1554.02576561     A.U. after   33 cycles

 Excitation energies and oscillator strengths:

 Excited State   1:  2.011-A      0.2415 eV 5133.82 nm  f=0.0000  <S**2>=0.761
    105B ->113B        0.12953
    108B ->113B        0.13259
    109B ->113B       -0.24979
    110B ->113B        0.26797
    111B ->113B       -0.57009
    112B ->113B        0.73575
    111B <-113B       -0.16585
    112B <-113B        0.20697
 This state for optimization and/or second-order correction.
 Total Energy, E(TD-HF/TD-DFT) =  -1554.01689048
 Copying the excited state density for this state as the 1-particle RhoCI density.

 Excited State   2:  2.092-A      1.4344 eV  864.38 nm  f=0.0005  <S**2>=0.844
    111B ->113B        0.75999
    112B ->113B        0.61508

 Excited State   3:  2.028-A      2.1178 eV  585.43 nm  f=0.0041  <S**2>=0.778
    102B ->113B       -0.15024
    103B ->113B        0.41229
    104B ->113B       -0.11762
    106B ->113B        0.56871
    107B ->113B        0.16962
    108B ->113B        0.31524
    109B ->113B        0.13765
    110B ->113B       -0.47239
    111B ->113B       -0.16478

 Excited State   4:  2.208-A      2.5186 eV  492.28 nm  f=0.0008  <S**2>=0.968
    112A ->116A       -0.10577
    101B ->113B       -0.11342
    105B ->113B        0.20365
    106B ->113B        0.35496
    107B ->113B       -0.15408
    108B ->113B        0.30537
    109B ->113B       -0.45839
    110B ->113B        0.46179
    111B ->113B        0.24635
    111B ->116B       -0.17553
    112B ->113B       -0.32508
    112B ->116B        0.13260

 Excited State   5:  3.396-A      2.7221 eV  455.47 nm  f=0.0005  <S**2>=2.633
    108A ->116A        0.12002
    112A ->116A       -0.33428
    113A ->116A        0.61911
    113A ->120A        0.10494
    111B ->113B       -0.10084
    111B ->116B       -0.44185
    112B ->116B       -0.33856

 Excited State   6:  3.437-A      2.9383 eV  421.96 nm  f=0.0007  <S**2>=2.703
    108A ->115A        0.10007
    110A ->115A        0.10913
    112A ->114A       -0.20931
    112A ->116A        0.15144
    113A ->114A       -0.52086
    107B ->115B        0.12946
    111B ->116B        0.12121
    112B ->114B        0.70112

 Excited State   7:  2.142-A      3.1061 eV  399.16 nm  f=0.0302  <S**2>=0.897
    112A ->116A        0.15083
    113A ->114A       -0.20368
    103B ->113B        0.14221
    106B ->113B        0.22504
    107B ->113B        0.24346
    108B ->113B       -0.13276
    109B ->113B        0.55116
    110B ->113B        0.57381
    112B ->114B       -0.25380
    112B ->116B       -0.10906

 Excited State   8:  3.329-A      3.1547 eV  393.01 nm  f=0.0006  <S**2>=2.521
    112A ->116A        0.52390
    113A ->114A        0.19710
    113A ->116A        0.36014
    109B ->113B       -0.23330
    111B ->114B       -0.15873
    111B ->116B        0.32895
    112B ->116B       -0.46279
    112B ->117B       -0.10622

 Excited State   9:  2.079-A      3.2896 eV  376.90 nm  f=0.0227  <S**2>=0.831
    112A ->116A       -0.28564
    113A ->114A       -0.14439
    113A ->116A        0.46920
    111B ->114B       -0.32012
    111B ->116B        0.47374
    112B ->114B       -0.11413
    112B ->116B        0.42033

 Excited State  10:  3.123-A      3.3294 eV  372.39 nm  f=0.0082  <S**2>=2.188
    112A ->114A        0.21718
    112A ->116A        0.10096
    113A ->114A       -0.37414
    113A ->116A        0.14433
    109B ->113B       -0.13516
    111B ->114B        0.79286
    111B ->116B        0.17057
    112B ->114B       -0.18671

 Excited State  11:  2.032-A      3.4323 eV  361.23 nm  f=0.0235  <S**2>=0.782
    112A ->114A       -0.33974
    112A ->116A       -0.10630
    113A ->114A        0.60010
    113A ->116A        0.14508
    109B ->113B        0.14100
    110B ->113B        0.15187
    111B ->114B        0.45219
    111B ->116B        0.18632
    112B ->114B        0.38852
    112B ->116B        0.11707

 Excited State  12:  2.564-A      3.4763 eV  356.65 nm  f=0.0244  <S**2>=1.393
    112A ->114A        0.79626
    113A ->114A        0.12041
    110B ->113B        0.15514
    111B ->116B        0.10602
    112B ->114B        0.39551
    112B ->117B       -0.13664
    112B ->118B        0.11485

 Excited State  13:  3.393-A      3.5131 eV  352.92 nm  f=0.0014  <S**2>=2.627
    112A ->114A       -0.23399
    112A ->117A        0.21493
    112A ->118A       -0.25153
    112A ->121A        0.10169
    113A ->115A        0.10714
    113A ->117A        0.29483
    113A ->118A       -0.28758
    113A ->119A       -0.12904
    113A ->121A        0.10975
    113A ->123A        0.10452
    111B ->118B       -0.14711
    112B ->115B       -0.22323
    112B ->117B       -0.37844
    112B ->118B        0.44914
    112B ->120B        0.12280
    112B ->121B       -0.15853
    112B ->123B       -0.11535

 Excited State  14:  2.067-A      3.6202 eV  342.48 nm  f=0.0123  <S**2>=0.818
    112A ->114A        0.15526
    112A ->116A        0.54851
    113A ->114A        0.10190
    113A ->116A        0.28757
    108B ->113B        0.12365
    109B ->113B        0.13165
    111B ->116B       -0.38645
    112B ->114B        0.12582
    112B ->115B       -0.22006
    112B ->116B        0.46244
    112B ->117B        0.11212

 Excited State  15:  2.129-A      3.6868 eV  336.29 nm  f=0.0052  <S**2>=0.884
    113A ->116A       -0.10174
    103B ->113B       -0.12937
    106B ->113B       -0.35995
    107B ->113B        0.14395
    108B ->113B        0.81624
    109B ->113B        0.25319
    112B ->116B       -0.16706

 Excited State  16:  3.308-A      3.7651 eV  329.30 nm  f=0.0004  <S**2>=2.486
    108A ->115A       -0.11644
    110A ->115A       -0.10479
    112A ->115A       -0.12402
    113A ->115A       -0.31978
    113A ->117A        0.17424
    113A ->123A        0.12973
    107B ->115B       -0.13592
    112B ->115B        0.74721
    112B ->116B        0.21305
    112B ->117B       -0.14473
    112B ->119B        0.12160
    112B ->123B       -0.12772

 Excited State  17:  3.310-A      3.8362 eV  323.20 nm  f=0.0002  <S**2>=2.489
    101A ->114A        0.11406
    106A ->114A        0.10193
    108A ->115A       -0.23344
    109A ->114A       -0.11305
    109A ->115A       -0.11019
    110A ->115A       -0.30293
    112A ->114A       -0.15663
    112A ->118A        0.10236
    113A ->114A       -0.14920
    113A ->115A        0.27712
    113A ->117A        0.12810
    113A ->120A       -0.12122
    113A ->123A        0.11070
    106B ->114B        0.10497
    107B ->113B        0.32032
    107B ->114B       -0.10898
    107B ->115B       -0.31669
    108B ->114B        0.13714
    108B ->115B        0.11532
    109B ->113B       -0.13870
    109B ->115B        0.22441
    111B ->115B       -0.11424
    111B ->117B       -0.11933
    111B ->118B        0.11425
    112B ->114B        0.12312
    112B ->115B       -0.24790
    112B ->119B        0.10554

 Excited State  18:  3.379-A      3.8963 eV  318.21 nm  f=0.0003  <S**2>=2.605
    108A ->115A       -0.12331
    110A ->115A       -0.14908
    111A ->116A        0.15249
    112A ->117A        0.24415
    112A ->118A       -0.15646
    112A ->119A       -0.14650
    112A ->123A        0.13386
    113A ->114A       -0.14712
    113A ->117A       -0.34269
    113A ->120A        0.20058
    113A ->123A       -0.24313
    113A ->124A       -0.10980
    107B ->113B        0.19255
    107B ->115B       -0.16280
    109B ->115B        0.11470
    111B ->117B        0.37497
    111B ->118B       -0.25027
    111B ->119B       -0.10205
    111B ->123B        0.19033
    111B ->124B        0.12413
    112B ->117B        0.14651
    112B ->119B       -0.13676
    112B ->123B        0.12435

 Excited State  19:  2.342-A      3.9104 eV  317.06 nm  f=0.0008  <S**2>=1.122
    111A ->116A       -0.12041
    112A ->115A        0.10148
    113A ->115A        0.82048
    113A ->116A        0.14045
    112B ->115B        0.42194
    112B ->116B        0.12023

 Excited State  20:  2.814-A      3.9646 eV  312.73 nm  f=0.0093  <S**2>=1.730
    111A ->114A       -0.21596
    111A ->116A        0.82231
    111A ->117A        0.12143
    112A ->117A       -0.14228
    112A ->118A        0.14358
    109B ->116B       -0.10757
    110B ->116B       -0.15942

 Excited State  21:  2.946-A      4.0080 eV  309.34 nm  f=0.0006  <S**2>=1.919
    112A ->115A        0.10509
    107B ->113B        0.15734
    111B ->115B        0.89896
    111B ->116B        0.11464
    111B ->119B        0.13674
    112B ->115B        0.13673

 Excited State  22:  2.983-A      4.0699 eV  304.63 nm  f=0.0029  <S**2>=1.974
    112A ->115A        0.27471
    112A ->117A       -0.16058
    112A ->119A        0.11634
    112A ->120A        0.22838
    112A ->123A       -0.22758
    112A ->124A       -0.12633
    113A ->115A       -0.18039
    113A ->118A       -0.10073
    113A ->120A        0.14591
    113A ->123A       -0.11120
    107B ->113B        0.42410
    109B ->113B       -0.18434
    111B ->115B       -0.23577
    111B ->117B       -0.21298
    111B ->119B        0.15020
    111B ->123B       -0.15831
    111B ->124B       -0.11415
    112B ->118B        0.18797
    112B ->119B       -0.27982
    112B ->123B        0.17920
    112B ->124B        0.15457

 Excited State  23:  3.046-A      4.1028 eV  302.19 nm  f=0.0036  <S**2>=2.070
    108A ->114A       -0.16088
    108A ->115A        0.12019
    110A ->114A       -0.19912
    110A ->115A        0.15421
    111A ->114A       -0.27887
    112A ->114A        0.10504
    112A ->115A        0.25029
    112A ->117A        0.10030
    112A ->119A       -0.13284
    112A ->123A        0.11461
    113A ->118A        0.17593
    113A ->119A       -0.16035
    113A ->120A       -0.11080
    107B ->113B        0.43046
    107B ->114B       -0.22347
    107B ->115B        0.17320
    109B ->113B       -0.17810
    109B ->114B        0.18965
    109B ->115B       -0.12068
    112B ->117B       -0.13968
    112B ->118B       -0.10837
    112B ->119B        0.23197
    112B ->123B       -0.15920
    112B ->124B       -0.12995

 Excited State  24:  2.772-A      4.1260 eV  300.50 nm  f=0.0008  <S**2>=1.671
    110A ->114A       -0.11178
    111A ->114A       -0.12411
    112A ->115A        0.66825
    112A ->118A       -0.11043
    112A ->119A        0.16987
    113A ->115A       -0.11580
    113A ->119A        0.21141
    113A ->120A       -0.13203
    107B ->113B       -0.40830
    107B ->114B       -0.13918
    109B ->113B        0.17194
    112B ->120B       -0.14380

 Excited State  25:  3.093-A      4.1358 eV  299.79 nm  f=0.0019  <S**2>=2.142
    110A ->114A        0.10675
    111A ->114A        0.26268
    112A ->117A        0.10921
    112A ->119A        0.18749
    112A ->120A       -0.10349
    113A ->117A        0.12653
    113A ->118A       -0.12622
    113A ->119A        0.53886
    113A ->120A       -0.13507
    113A ->122A       -0.11014
    105B ->113B        0.17543
    107B ->113B        0.31017
    107B ->114B        0.11997
    107B ->115B        0.10124
    109B ->113B       -0.16171
    111B ->117B        0.16545
    112B ->120B       -0.29687
    112B ->122B        0.17661

 The electronic state is 2-A.
 Alpha  occ. eigenvalues --  -77.25837 -19.27476 -19.19053 -19.15328 -14.44467
 Alpha  occ. eigenvalues --  -14.43742 -10.32677 -10.29685 -10.29200 -10.26473
 Alpha  occ. eigenvalues --  -10.25913 -10.25737 -10.25564 -10.25533 -10.25201
 Alpha  occ. eigenvalues --  -10.24971 -10.24941 -10.24738 -10.21989 -10.21898
 Alpha  occ. eigenvalues --  -10.21868 -10.21846 -10.21840 -10.21387 -10.21165
 Alpha  occ. eigenvalues --  -10.20876  -6.63794  -4.77431  -4.77343  -4.77135
 Alpha  occ. eigenvalues --   -3.05165  -1.89200  -1.87975  -1.87385  -1.14053
 Alpha  occ. eigenvalues --   -1.00970  -0.97124  -0.92763  -0.90878  -0.85335
 Alpha  occ. eigenvalues --   -0.83970  -0.83512  -0.82728  -0.77885  -0.77151
 Alpha  occ. eigenvalues --   -0.74262  -0.70624  -0.70505  -0.70198  -0.69565
 Alpha  occ. eigenvalues --   -0.69298  -0.66238  -0.66077  -0.63303  -0.62278
 Alpha  occ. eigenvalues --   -0.57820  -0.57383  -0.56144  -0.53488  -0.53167
 Alpha  occ. eigenvalues --   -0.52046  -0.51162  -0.50278  -0.48706  -0.47730
 Alpha  occ. eigenvalues --   -0.46678  -0.46322  -0.46198  -0.45772  -0.45541
 Alpha  occ. eigenvalues --   -0.45204  -0.44923  -0.44358  -0.44202  -0.44072
 Alpha  occ. eigenvalues --   -0.43285  -0.43064  -0.42019  -0.41942  -0.41217
 Alpha  occ. eigenvalues --   -0.40636  -0.40141  -0.39553  -0.39036  -0.38461
 Alpha  occ. eigenvalues --   -0.38389  -0.37923  -0.37913  -0.37061  -0.36804
 Alpha  occ. eigenvalues --   -0.36612  -0.36386  -0.35800  -0.35568  -0.35057
 Alpha  occ. eigenvalues --   -0.34556  -0.34360  -0.34020  -0.33434  -0.32993
 Alpha  occ. eigenvalues --   -0.32791  -0.32499  -0.31851  -0.31048  -0.30003
 Alpha  occ. eigenvalues --   -0.29108  -0.28916  -0.27472  -0.26993  -0.26637
 Alpha  occ. eigenvalues --   -0.23489  -0.20778  -0.19788
 Alpha virt. eigenvalues --   -0.03914  -0.01940  -0.00455   0.00753   0.01590
 Alpha virt. eigenvalues --    0.02179   0.02777   0.03779   0.03931   0.06086
 Alpha virt. eigenvalues --    0.06895   0.08591   0.09230   0.09592   0.09679

  Beta  occ. eigenvalues --  -77.25836 -19.27403 -19.16833 -19.15337 -14.44469
  Beta  occ. eigenvalues --  -14.43678 -10.32671 -10.29689 -10.29205 -10.26453
  Beta  occ. eigenvalues --  -10.25917 -10.25739 -10.25567 -10.25531 -10.25188
  Beta  occ. eigenvalues --  -10.24967 -10.24936 -10.24737 -10.21989 -10.21893
  Beta  occ. eigenvalues --  -10.21867 -10.21846 -10.21840 -10.21356 -10.21156
  Beta  occ. eigenvalues --  -10.20875  -6.63792  -4.77431  -4.77342  -4.77130
  Beta  occ. eigenvalues --   -3.04768  -1.88657  -1.87453  -1.87103  -1.13934
  Beta  occ. eigenvalues --   -1.00955  -0.97022  -0.92750  -0.85413  -0.84376
  Beta  occ. eigenvalues --   -0.83924  -0.83435  -0.82590  -0.77851  -0.77120
  Beta  occ. eigenvalues --   -0.74250  -0.70601  -0.70471  -0.70183  -0.69525
  Beta  occ. eigenvalues --   -0.69265  -0.66219  -0.66059  -0.63288  -0.62268
  Beta  occ. eigenvalues --   -0.57699  -0.57267  -0.56130  -0.53454  -0.53134
  Beta  occ. eigenvalues --   -0.51949  -0.51052  -0.50179  -0.48617  -0.47692
  Beta  occ. eigenvalues --   -0.46504  -0.46166  -0.46060  -0.45715  -0.45386
  Beta  occ. eigenvalues --   -0.45013  -0.44873  -0.44311  -0.44154  -0.44010
  Beta  occ. eigenvalues --   -0.43233  -0.42980  -0.41954  -0.41867  -0.41160
  Beta  occ. eigenvalues --   -0.40595  -0.40088  -0.39309  -0.38958  -0.38443
  Beta  occ. eigenvalues --   -0.38310  -0.37913  -0.37889  -0.37002  -0.36754
  Beta  occ. eigenvalues --   -0.36531  -0.36018  -0.35708  -0.35018  -0.34711
  Beta  occ. eigenvalues --   -0.34363  -0.34312  -0.33568  -0.32956  -0.32870
  Beta  occ. eigenvalues --   -0.32502  -0.31908  -0.30226  -0.30123  -0.29153
  Beta  occ. eigenvalues --   -0.28334  -0.27238  -0.26849  -0.26219  -0.25485
  Beta  occ. eigenvalues --   -0.20146  -0.19436
  Beta virt. eigenvalues --   -0.08703  -0.03893  -0.01908   0.00040   0.00835
  Beta virt. eigenvalues --    0.01636   0.02841   0.03034   0.03811   0.04188
  Beta virt. eigenvalues --    0.06286   0.06993   0.08624   0.09262   0.09601

 Mulliken charges and spin densities:
               1          2
     1  H    0.056806   0.000156
     2  C   -0.120542   0.000059
     3  H    0.059421   0.000649
     4  H    0.100450   0.000124
     5  H    0.102011  -0.002609
     6  O   -0.478368  -0.001464
     7  H    0.066984   0.000009
     8  O   -0.459760   0.853712
     9  C   -0.000490   0.008011
    10  H    0.048882   0.000441
    11  H    0.051902  -0.000335
    12  C   -0.026706   0.015420
    13  H    0.079120  -0.000012
    14  H    0.051352   0.000281
    15  H    0.087104  -0.000316
    16  C   -0.019086   0.000104
    17  H    0.053620  -0.000022
    18  H    0.114441  -0.001775
    19  Ru   0.048070   0.051314
    20  H    0.088102  -0.003232
    21  N   -0.380919   0.020391
    22  C    0.119956   0.012009
    23  C   -0.451821   0.001111
    24  H    0.046431   0.000550
    25  H    0.045331   0.000001
    26  C   -0.032421   0.005505
    27  C   -0.465745  -0.000615
    28  P    0.233647   0.003670
    29  H    0.073231  -0.001000
    30  C   -0.001307  -0.000064
    31  H    0.098000   0.000654
    32  H    0.064375  -0.000008
    33  H    0.050257  -0.000085
    34  C   -0.043720  -0.001677
    35  H    0.049341   0.000225
    36  C    0.017721   0.013532
    37  C    0.000319   0.001174
    38  H    0.084927   0.000414
    39  C   -0.011295   0.000129
    40  H    0.064702  -0.000052
    41  H    0.053078   0.000155
    42  C    0.036621  -0.003705
    43  N   -0.313819   0.000284
    44  C   -0.077826   0.000010
    45  H    0.059653   0.000180
    46  H    0.106893  -0.000162
    47  H    0.058291   0.000010
    48  H    0.064051  -0.000009
    49  C   -0.091999   0.000043
    50  H    0.063908   0.000231
    51  H    0.061721   0.000031
    52  C    0.069988  -0.001671
    53  C   -0.047149   0.002832
    54  H    0.066459  -0.000002
    55  H    0.035879  -0.000105
    56  H    0.132523  -0.000140
    57  H    0.098314  -0.000135
    58  C   -0.044600   0.003025
    59  C    0.081665  -0.002476
    60  H    0.036034  -0.000164
    61  H    0.048358   0.000107
    62  O   -0.149456   0.025538
    63  H    0.187092  -0.000260
 Sum of Mulliken charges =  -0.00000   1.00000

 Dipole moment (field-independent basis, Debye):
    X=              1.6258    Y=             10.9966    Z=             -7.0562  Tot=             13.1666
 Quadrupole moment (field-independent basis, Debye-Ang):
   XX=           -144.7380   YY=           -177.5442   ZZ=           -201.4883
   XY=             -8.7651   XZ=             -4.2205   YZ=              2.3123

 Normal termination of Gaussian 16 at Wed Jul 29 10:26:36 2020.
