 Gaussian 16, Revision A.03,
 Gaussian 16:  ES64L-G16RevA.03 25-Dec-2016

 ----------------------------------------------------------------------
 # genecp pbe1pbe EmpiricalDispersion=GD3BJ scrf=(SMD,solvent=water) ge
 om=allcheck
 ----------------------------------------------------------------------

 Structure from the checkpoint file:  "/scratch/js1212.771174/G-Cis-Mono-D-0-GP-SMD.chk"
 -------------------
 Title Card Required
 -------------------
 Charge =  0 Multiplicity = 2

                         Standard orientation:
 ---------------------------------------------------------------------
 Center     Atomic      Atomic             Coordinates (Angstroms)
 Number     Number       Type             X           Y           Z
 ---------------------------------------------------------------------
      1          1           0       -3.597129   -3.370113    1.857318
      2          6           0       -3.306863   -2.758150    0.990150
      3          1           0       -4.054199   -2.935199    0.200575
      4          1           0       -2.306511   -3.082635    0.659236
      5          1           0        1.491095   -0.734730    2.727079
      6          8           0       -0.250256   -2.589751    0.683197
      7          1           0        4.338422   -1.680604    0.660414
      8          8           0       -0.484129   -0.197818    2.047271
      9          6           0       -3.234874   -1.310478    1.424884
     10          1           0        2.871474    0.053903    3.549599
     11          1           0       -4.223735   -0.939319    1.761293
     12          6           0        2.528412   -0.392895    2.600916
     13          1           0        2.864221   -2.662131    0.462699
     14          1           0        3.174291   -1.254187    2.388117
     15          1           0       -2.526818   -1.207638    2.260989
     16          6           0        3.654329   -2.118871   -0.078180
     17          1           0        4.229687   -2.851682   -0.667887
     18          1           0       -2.320812    0.922358    1.907819
     19         44           0       -0.395547   -0.613679    0.133940
     20          1           0        0.701775    1.557646    2.119869
     21          7           0       -2.705735   -0.404625    0.379714
     22          6           0       -2.751451    0.974965    0.891984
     23          6           0        2.595292    0.679326    1.507643
     24          1           0        2.145564    2.244474    2.908138
     25          1           0        4.765958    0.332183   -0.953647
     26          6           0        1.740844    1.873522    1.951710
     27          6           0        3.063172   -1.072327   -1.026160
     28         15           0        1.796539   -0.024484   -0.067510
     29          1           0       -3.781606    1.363076    0.964347
     30          6           0        4.171818   -0.239275   -1.675016
     31          1           0       -3.200253   -1.510105   -1.314261
     32          1           0       -5.438144   -1.026658   -0.236331
     33          1           0        4.859334   -0.919381   -2.205373
     34          6           0       -3.419839   -0.514416   -0.908036
     35          1           0        4.356122    1.648303    2.257633
     36          6           0       -0.576050   -1.063021   -1.672904
     37          6           0        4.031885    1.164782    1.320944
     38          1           0        1.568387   -2.502737   -1.741821
     39          6           0        2.326243   -1.815750   -2.140482
     40          1           0        4.737867    0.347811    1.119463
     41          1           0        3.060072   -2.410651   -2.708895
     42          6           0       -1.880569    1.908728    0.106738
     43          7           0       -0.693597    1.388922   -0.264248
     44          6           0       -4.924629   -0.290889   -0.872058
     45          1           0        1.778581    2.709725    1.236561
     46          1           0       -2.952080    0.208692   -1.594179
     47          1           0        3.772126    0.460096   -2.424816
     48          1           0       -5.199146    0.714945   -0.519974
     49          6           0        1.548564    1.471390   -1.177238
     50          1           0       -5.324984   -0.397662   -1.891433
     51          1           0        4.125622    1.915694    0.520595
     52          6           0        0.250024    2.151700   -0.854399
     53          6           0       -2.188302    3.238511   -0.155184
     54          1           0        1.831570   -1.138937   -2.851353
     55          1           0       -3.159039    3.638379    0.139745
     56          1           0        1.489762    1.057814   -2.199070
     57          1           0        2.383888    2.187307   -1.161700
     58          6           0       -0.001881    3.495245   -1.123106
     59          6           0       -1.235690    4.040032   -0.779877
     60          1           0        0.768502    4.104184   -1.597288
     61          1           0       -1.451562    5.088388   -0.992840
     62          8           0       -0.792621   -1.328014   -2.782118
     63          1           0        0.346447   -3.059661    0.089632
 ---------------------------------------------------------------------

 SCF Done:  E(UPBE1PBE) =  -1554.34051532     A.U. after   37 cycles

 The electronic state is 2-A.
 Alpha  occ. eigenvalues --  -77.25888 -19.26136 -19.17693 -19.13890 -14.43413
 Alpha  occ. eigenvalues --  -14.42836 -10.31927 -10.28963 -10.28472 -10.25696
 Alpha  occ. eigenvalues --  -10.25245 -10.25111 -10.25053 -10.24763 -10.24403
 Alpha  occ. eigenvalues --  -10.24165 -10.24132 -10.23912 -10.21000 -10.20917
 Alpha  occ. eigenvalues --  -10.20858 -10.20853 -10.20847 -10.20423 -10.20210
 Alpha  occ. eigenvalues --  -10.19899  -6.63301  -4.76969  -4.76881  -4.76676
 Alpha  occ. eigenvalues --   -3.05359  -1.89354  -1.88164  -1.87558  -1.13737
 Alpha  occ. eigenvalues --   -1.00749  -0.96988  -0.92925  -0.90944  -0.85265
 Alpha  occ. eigenvalues --   -0.83818  -0.83401  -0.82720  -0.77893  -0.77110
 Alpha  occ. eigenvalues --   -0.74179  -0.70661  -0.70484  -0.70217  -0.69605
 Alpha  occ. eigenvalues --   -0.69342  -0.66231  -0.66001  -0.63263  -0.62224
 Alpha  occ. eigenvalues --   -0.57866  -0.57429  -0.56203  -0.53543  -0.53225
 Alpha  occ. eigenvalues --   -0.52140  -0.51284  -0.50385  -0.48811  -0.47792
 Alpha  occ. eigenvalues --   -0.46818  -0.46439  -0.46354  -0.45910  -0.45693
 Alpha  occ. eigenvalues --   -0.45386  -0.45102  -0.44485  -0.44346  -0.44191
 Alpha  occ. eigenvalues --   -0.43418  -0.43230  -0.42182  -0.42081  -0.41364
 Alpha  occ. eigenvalues --   -0.40825  -0.40322  -0.39705  -0.39187  -0.38608
 Alpha  occ. eigenvalues --   -0.38583  -0.38100  -0.38090  -0.37219  -0.36951
 Alpha  occ. eigenvalues --   -0.36799  -0.36559  -0.35948  -0.35735  -0.35189
 Alpha  occ. eigenvalues --   -0.34705  -0.34512  -0.34196  -0.33598  -0.33147
 Alpha  occ. eigenvalues --   -0.32936  -0.32636  -0.32033  -0.31257  -0.30185
 Alpha  occ. eigenvalues --   -0.29313  -0.29244  -0.27711  -0.27181  -0.26838
 Alpha  occ. eigenvalues --   -0.23726  -0.21010  -0.20094
 Alpha virt. eigenvalues --   -0.04204  -0.02243  -0.00716   0.00552   0.01283
 Alpha virt. eigenvalues --    0.01862   0.02501   0.03261   0.03369   0.05443
 Alpha virt. eigenvalues --    0.06236   0.07425   0.07546   0.07894   0.08073

  Beta  occ. eigenvalues --  -77.25887 -19.26061 -19.15451 -19.13898 -14.43414
  Beta  occ. eigenvalues --  -14.42770 -10.31921 -10.28966 -10.28477 -10.25674
  Beta  occ. eigenvalues --  -10.25247 -10.25115 -10.25050 -10.24766 -10.24391
  Beta  occ. eigenvalues --  -10.24161 -10.24128 -10.23911 -10.21000 -10.20912
  Beta  occ. eigenvalues --  -10.20858 -10.20853 -10.20847 -10.20392 -10.20203
  Beta  occ. eigenvalues --  -10.19898  -6.63300  -4.76969  -4.76881  -4.76672
  Beta  occ. eigenvalues --   -3.04954  -1.88795  -1.87632  -1.87274  -1.13616
  Beta  occ. eigenvalues --   -1.00733  -0.96887  -0.92912  -0.85362  -0.84427
  Beta  occ. eigenvalues --   -0.83786  -0.83346  -0.82591  -0.77860  -0.77078
  Beta  occ. eigenvalues --   -0.74167  -0.70637  -0.70452  -0.70200  -0.69564
  Beta  occ. eigenvalues --   -0.69312  -0.66207  -0.65988  -0.63248  -0.62214
  Beta  occ. eigenvalues --   -0.57752  -0.57302  -0.56190  -0.53508  -0.53189
  Beta  occ. eigenvalues --   -0.52036  -0.51177  -0.50289  -0.48718  -0.47752
  Beta  occ. eigenvalues --   -0.46612  -0.46302  -0.46211  -0.45850  -0.45532
  Beta  occ. eigenvalues --   -0.45191  -0.45056  -0.44430  -0.44302  -0.44138
  Beta  occ. eigenvalues --   -0.43368  -0.43141  -0.42133  -0.41989  -0.41307
  Beta  occ. eigenvalues --   -0.40780  -0.40265  -0.39451  -0.39104  -0.38589
  Beta  occ. eigenvalues --   -0.38504  -0.38094  -0.38061  -0.37154  -0.36905
  Beta  occ. eigenvalues --   -0.36692  -0.36194  -0.35824  -0.35147  -0.34855
  Beta  occ. eigenvalues --   -0.34522  -0.34469  -0.33730  -0.33106  -0.33004
  Beta  occ. eigenvalues --   -0.32629  -0.32013  -0.30528  -0.30225  -0.29464
  Beta  occ. eigenvalues --   -0.28639  -0.27401  -0.27010  -0.26495  -0.25714
  Beta  occ. eigenvalues --   -0.20420  -0.19757
  Beta virt. eigenvalues --   -0.09014  -0.04183  -0.02214  -0.00218   0.00617
  Beta virt. eigenvalues --    0.01321   0.02564   0.02674   0.03344   0.03606
  Beta virt. eigenvalues --    0.05626   0.06308   0.07445   0.07566   0.07916

 Mulliken charges and spin densities:
               1          2
     1  H    0.113712   0.000177
     2  C   -0.359534   0.000143
     3  H    0.106842   0.000716
     4  H    0.136586   0.000174
     5  H    0.146146  -0.007583
     6  O   -0.707726  -0.000564
     7  H    0.123567   0.000021
     8  O   -0.583910   0.844835
     9  C   -0.111306   0.009992
    10  H    0.107399   0.000318
    11  H    0.115771  -0.000406
    12  C   -0.349951   0.018560
    13  H    0.122733   0.000006
    14  H    0.120990   0.000262
    15  H    0.147421  -0.002839
    16  C   -0.341440   0.000144
    17  H    0.109179  -0.000028
    18  H    0.172030  -0.003613
    19  Ru   0.695843   0.053903
    20  H    0.150363  -0.003397
    21  N   -0.215275   0.019449
    22  C   -0.109198   0.016114
    23  C    0.000938   0.002082
    24  H    0.109461   0.000642
    25  H    0.125051  -0.000003
    26  C   -0.369483   0.005512
    27  C   -0.001576  -0.001172
    28  P    0.126860   0.007284
    29  H    0.126117  -0.001270
    30  C   -0.329403  -0.000017
    31  H    0.131057   0.000535
    32  H    0.112663  -0.000012
    33  H    0.110566  -0.000102
    34  C   -0.116209  -0.002433
    35  H    0.109187   0.000427
    36  C   -0.116956   0.021582
    37  C   -0.330179   0.001237
    38  H    0.123768   0.000343
    39  C   -0.351921  -0.000183
    40  H    0.118904  -0.000095
    41  H    0.113497   0.000096
    42  C    0.113907  -0.004891
    43  N   -0.149446   0.000343
    44  C   -0.323786   0.000123
    45  H    0.114678   0.000124
    46  H    0.140248  -0.000645
    47  H    0.114747   0.000020
    48  H    0.111586  -0.000032
    49  C   -0.220955  -0.001323
    50  H    0.117595   0.000194
    51  H    0.117468   0.000007
    52  C    0.054887  -0.001819
    53  C   -0.155503   0.002485
    54  H    0.120487  -0.000137
    55  H    0.162339  -0.000142
    56  H    0.166876  -0.000176
    57  H    0.149283  -0.000336
    58  C   -0.131224   0.002671
    59  C   -0.132423  -0.002334
    60  H    0.164883  -0.000136
    61  H    0.163681   0.000118
    62  O   -0.245747   0.025500
    63  H    0.263835  -0.000453
 Sum of Mulliken charges =  -0.00000   1.00000

 Dipole moment (field-independent basis, Debye):
    X=              1.5802    Y=             11.1332    Z=             -6.9895  Tot=             13.2400
 Quadrupole moment (field-independent basis, Debye-Ang):
   XX=           -146.0619   YY=           -179.1212   ZZ=           -203.3313
   XY=             -8.8688   XZ=             -4.4032   YZ=              2.0279

 Normal termination of Gaussian 16 at Fri Aug 28 20:37:50 2020.
